
     Program PROJWFC v.6.7MaX starts on  5Feb2024 at 17:53:24 

     This program is part of the open-source Quantum ESPRESSO suite
     for quantum simulation of materials; please cite
         "P. Giannozzi et al., J. Phys.:Condens. Matter 21 395502 (2009);
         "P. Giannozzi et al., J. Phys.:Condens. Matter 29 465901 (2017);
          URL http://www.quantum-espresso.org", 
     in publications or presentations arising from this work. More details at
     http://www.quantum-espresso.org/quote

     Parallel version (MPI), running on     4 processors

     MPI processes distributed on     1 nodes
     R & G space division:  proc/nbgrp/npool/nimage =       4

     Reading xml data from directory:

     ./pwscf.save/
     file H.pbe-rrkjus.UPF: wavefunction(s)  1S renormalized
     file O.pbe-rrkjus.UPF: wavefunction(s)  2S renormalized

     IMPORTANT: XC functional enforced from input :
     Exchange-correlation= PBE
                           (   1   4   3   4   0   0   0)
     Any further DFT definition will be discarded
     Please, verify this is what you really want


     Parallelization info
     --------------------
     sticks:   dense  smooth     PW     G-vecs:    dense   smooth      PW
     Min        2692    1199    319               225848    66937    9251
     Max        2693    1200    320               225853    66940    9254
     Sum       10769    4799   1279               903397   267757   37009


     negative rho (up, down):  4.073E-02 4.073E-02

     Gaussian broadening (read from input): ngauss,degauss=   0    0.005000


     Calling projwave .... 

  Problem Sizes 
  natomwfc =           20
  nbnd     =           40
  nkstot   =          126
  npwx     =         8399
  nkb      =           38


     Atomic states used for projection
     (read from pseudopotential files):

     state #   1: atom   1 (H  ), wfc  1 (l=0 m= 1)
     state #   2: atom   2 (H  ), wfc  1 (l=0 m= 1)
     state #   3: atom   3 (O  ), wfc  1 (l=0 m= 1)
     state #   4: atom   3 (O  ), wfc  2 (l=1 m= 1)
     state #   5: atom   3 (O  ), wfc  2 (l=1 m= 2)
     state #   6: atom   3 (O  ), wfc  2 (l=1 m= 3)
     state #   7: atom   4 (O  ), wfc  1 (l=0 m= 1)
     state #   8: atom   4 (O  ), wfc  2 (l=1 m= 1)
     state #   9: atom   4 (O  ), wfc  2 (l=1 m= 2)
     state #  10: atom   4 (O  ), wfc  2 (l=1 m= 3)
     state #  11: atom   5 (Ti ), wfc  1 (l=0 m= 1)
     state #  12: atom   5 (Ti ), wfc  2 (l=1 m= 1)
     state #  13: atom   5 (Ti ), wfc  2 (l=1 m= 2)
     state #  14: atom   5 (Ti ), wfc  2 (l=1 m= 3)
     state #  15: atom   5 (Ti ), wfc  3 (l=0 m= 1)
     state #  16: atom   5 (Ti ), wfc  4 (l=2 m= 1)
     state #  17: atom   5 (Ti ), wfc  4 (l=2 m= 2)
     state #  18: atom   5 (Ti ), wfc  4 (l=2 m= 3)
     state #  19: atom   5 (Ti ), wfc  4 (l=2 m= 4)
     state #  20: atom   5 (Ti ), wfc  4 (l=2 m= 5)

 k =   0.0000000000  0.0000000000  0.0000000000
==== e(   1) =   -60.96779 eV ==== 
     psi = 0.971*[#  11]+0.007*[#   6]+0.006*[#  10]+0.003*[#   8]+0.003*[#   3]
          +0.003*[#   7]+0.003*[#   4]
    |psi|^2 = 1.000
==== e(   2) =   -37.56380 eV ==== 
     psi = 0.238*[#  13]+0.009*[#   3]+0.009*[#   7]+0.007*[#   6]+0.007*[#  10]
          +0.002*[#  14]
    |psi|^2 = 0.273
==== e(   3) =   -37.52753 eV ==== 
     psi = 0.933*[#  14]+0.726*[#  12]+0.018*[#   3]+0.018*[#   7]+0.007*[#   6]
          +0.006*[#  10]+0.001*[#   9]+0.001*[#   5]
    |psi|^2 = 1.711
==== e(   4) =   -37.39267 eV ==== 
     psi = 0.750*[#  13]+0.238*[#  12]+0.002*[#   1]+0.002*[#   5]+0.002*[#   9]
          +0.001*[#   2]
    |psi|^2 = 0.995
==== e(   5) =   -20.67112 eV ==== 
     psi = 0.428*[#   7]+0.422*[#   3]+0.087*[#  15]+0.030*[#  19]+0.015*[#  12]
          +0.007*[#  11]+0.004*[#  17]+0.003*[#  13]
    |psi|^2 = 0.999
==== e(   6) =   -20.33182 eV ==== 
     psi = 0.449*[#   3]+0.443*[#   7]+0.058*[#  18]+0.038*[#  14]+0.010*[#  20]
          +0.003*[#  12]
    |psi|^2 = 1.002
==== e(   7) =   -12.87387 eV ==== 
     psi = 0.484*[#   2]+0.451*[#   1]+0.020*[#  15]+0.013*[#  17]+0.008*[#  19]
          +0.002*[#  13]+0.001*[#  11]
    |psi|^2 = 0.982
==== e(   8) =    -7.51198 eV ==== 
     psi = 0.138*[#  19]+0.107*[#  16]+0.056*[#   5]+0.056*[#   9]+0.019*[#  10]
          +0.012*[#  17]+0.008*[#   6]+0.006*[#   3]+0.006*[#   7]+0.002*[#  18]
          +0.002*[#  11]
    |psi|^2 = 0.415
==== e(   9) =    -7.27439 eV ==== 
     psi = 0.318*[#   6]+0.311*[#  10]+0.257*[#  18]+0.039*[#  20]+0.017*[#   3]
          +0.017*[#   7]+0.011*[#   8]+0.007*[#  14]+0.004*[#   4]+0.003*[#   9]
          +0.002*[#   5]+0.002*[#  16]
    |psi|^2 = 0.988
==== e(  10) =    -7.12824 eV ==== 
     psi = 0.315*[#   9]+0.308*[#   5]+0.226*[#  20]+0.033*[#  18]+0.003*[#   8]
          +0.002*[#   4]
    |psi|^2 = 0.888
==== e(  11) =    -6.84103 eV ==== 
     psi = 0.342*[#   5]+0.334*[#   9]+0.086*[#  17]+0.071*[#  16]+0.056*[#   8]
          +0.053*[#   4]+0.017*[#  19]+0.005*[#   2]+0.004*[#   1]+0.003*[#  13]
          +0.001*[#  15]
    |psi|^2 = 0.972
==== e(  12) =    -6.50651 eV ==== 
     psi = 0.385*[#   6]+0.373*[#  10]+0.315*[#   8]+0.308*[#   4]+0.072*[#  17]
          +0.049*[#  19]+0.032*[#  16]+0.013*[#  15]+0.013*[#   3]+0.013*[#   7]
          +0.011*[#  11]+0.001*[#  13]+0.001*[#   9]
    |psi|^2 = 1.586
==== e(  13) =    -5.47889 eV ==== 
     psi = 0.406*[#   4]+0.392*[#   8]+0.070*[#   5]+0.069*[#   9]+0.027*[#  10]
          +0.012*[#   6]+0.009*[#  14]+0.001*[#   3]+0.001*[#   7]
    |psi|^2 = 0.987
==== e(  14) =    -2.97474 eV ==== 
     psi = 0.382*[#  15]+0.247*[#  19]+0.070*[#   4]+0.069*[#  16]+0.069*[#   8]
          +0.048*[#  17]+0.022*[#   9]+0.021*[#   5]+0.010*[#   2]+0.007*[#   3]
          +0.007*[#   7]+0.003*[#   1]+0.001*[#  13]
    |psi|^2 = 0.957
==== e(  15) =    -2.90489 eV ==== 
     psi = 0.317*[#  16]+0.077*[#   1]+0.075*[#   2]+0.055*[#  15]+0.051*[#  10]
          +0.047*[#   6]+0.044*[#  19]+0.041*[#  17]+0.011*[#   9]+0.010*[#   5]
          +0.003*[#   3]+0.003*[#   7]+0.002*[#  11]+0.001*[#  18]
    |psi|^2 = 0.738
==== e(  16) =    -1.95078 eV ==== 
     psi = 0.638*[#  17]+0.096*[#  15]+0.038*[#   5]+0.035*[#   1]+0.035*[#   9]
          +0.022*[#   8]+0.021*[#   4]+0.019*[#  16]+0.018*[#   6]+0.018*[#  10]
          +0.017*[#  19]+0.005*[#   2]+0.001*[#  12]+0.001*[#  20]
    |psi|^2 = 0.965
==== e(  17) =    -0.95105 eV ==== 
     psi = 0.515*[#  20]+0.148*[#  18]+0.107*[#   9]+0.105*[#   5]+0.019*[#   4]
          +0.017*[#   8]+0.003*[#   6]+0.003*[#  10]
    |psi|^2 = 0.919
==== e(  18) =    -0.74824 eV ==== 
     psi = 0.107*[#   8]+0.105*[#   4]+0.017*[#  19]+0.014*[#  16]+0.008*[#  17]
          +0.002*[#   9]+0.001*[#   5]+0.001*[#  10]
    |psi|^2 = 0.258
==== e(  19) =    -0.57706 eV ==== 
     psi = 0.115*[#  20]+0.080*[#  18]+0.066*[#   6]+0.058*[#  10]+0.005*[#   5]
          +0.005*[#   4]+0.004*[#   9]+0.004*[#   8]+0.003*[#   3]+0.003*[#  14]
          +0.003*[#   7]
    |psi|^2 = 0.349
==== e(  20) =    -0.28753 eV ==== 
     psi = 0.135*[#  16]+0.076*[#   2]+0.065*[#   1]+0.009*[#  10]+0.008*[#  15]
          +0.004*[#   6]+0.003*[#  17]+0.002*[#   8]+0.001*[#   4]
    |psi|^2 = 0.305
==== e(  21) =     0.03880 eV ==== 
     psi = 0.013*[#  15]+0.009*[#  19]+0.005*[#  16]+0.002*[#   1]+0.002*[#   4]
          +0.002*[#   8]+0.001*[#   2]
    |psi|^2 = 0.036
==== e(  22) =     0.04483 eV ==== 
     psi = 0.021*[#  19]+0.014*[#  16]+0.008*[#  17]+0.003*[#   2]+0.003*[#   5]
          +0.003*[#   9]+0.002*[#  15]
    |psi|^2 = 0.056
==== e(  23) =     0.16145 eV ==== 
     psi = 0.009*[#   2]+0.009*[#   1]+0.006*[#   4]+0.005*[#   8]
    |psi|^2 = 0.030
==== e(  24) =     0.19974 eV ==== 
     psi = 0.049*[#  19]+0.033*[#  16]+0.012*[#   2]+0.006*[#   1]+0.004*[#   5]
          +0.003*[#   9]+0.003*[#  15]+0.003*[#   4]+0.003*[#   8]+0.001*[#   7]
          +0.001*[#   3]
    |psi|^2 = 0.120
==== e(  25) =     0.30200 eV ==== 
     psi = 0.073*[#  18]+0.028*[#   6]+0.019*[#  10]+0.015*[#  20]+0.010*[#   1]
          +0.008*[#   2]+0.003*[#   3]+0.002*[#  19]+0.002*[#   8]+0.001*[#   7]
          +0.002*[#  14]+0.001*[#  16]+0.001*[#  15]
    |psi|^2 = 0.167
==== e(  26) =     0.32324 eV ==== 
     psi = 0.079*[#   1]+0.070*[#   2]+0.031*[#  16]+0.011*[#  18]+0.010*[#  10]
          +0.007*[#  15]+0.002*[#  19]+0.002*[#   7]+0.002*[#  20]
    |psi|^2 = 0.215
==== e(  27) =     0.69866 eV ==== 
     psi = 0.035*[#  16]+0.015*[#  19]+0.002*[#  17]+0.001*[#   4]+0.001*[#   2]
          
    |psi|^2 = 0.058
==== e(  28) =     0.77092 eV ==== 
     psi = 0.009*[#  18]+0.006*[#  19]+0.002*[#   6]+0.002*[#  20]+0.001*[#   5]
          +0.001*[#  10]
    |psi|^2 = 0.022
==== e(  29) =     0.79600 eV ==== 
     psi = 0.045*[#  19]+0.005*[#   8]+0.005*[#   4]+0.004*[#   9]+0.003*[#   5]
          +0.002*[#  18]+0.001*[#  16]
    |psi|^2 = 0.069
==== e(  30) =     0.91860 eV ==== 
     psi = 0.030*[#  19]+0.016*[#  15]+0.012*[#  16]+0.004*[#   8]+0.003*[#   4]
          +0.002*[#   7]+0.002*[#   3]+0.002*[#   5]+0.002*[#   9]
    |psi|^2 = 0.075
==== e(  31) =     0.94987 eV ==== 
     psi = 0.008*[#   8]+0.008*[#   4]
    |psi|^2 = 0.017
==== e(  32) =     0.97753 eV ==== 
     psi = 0.023*[#  19]+0.009*[#  16]+0.004*[#  15]+0.002*[#  17]+0.002*[#   9]
          +0.002*[#   5]+0.002*[#   4]+0.002*[#   8]
    |psi|^2 = 0.047
==== e(  33) =     0.99164 eV ==== 
     psi = 0.005*[#  15]+0.002*[#  19]
    |psi|^2 = 0.011
==== e(  34) =     1.03905 eV ==== 
     psi = 0.003*[#  17]+0.002*[#   1]
    |psi|^2 = 0.008
==== e(  35) =     1.05674 eV ==== 
     psi = 0.083*[#  18]+0.023*[#   6]+0.022*[#  10]+0.015*[#  20]+0.003*[#   3]
          +0.003*[#   7]+0.002*[#  14]
    |psi|^2 = 0.152
==== e(  36) =     1.12010 eV ==== 
     psi = 0.012*[#  18]+0.002*[#   6]+0.001*[#  10]
    |psi|^2 = 0.018
==== e(  37) =     1.13417 eV ==== 
     psi = 0.033*[#  19]+0.023*[#  15]+0.006*[#   8]+0.005*[#   4]+0.003*[#  16]
          +0.003*[#   3]+0.003*[#   7]+0.002*[#   1]+0.002*[#   5]+0.002*[#   9]
          +0.001*[#   2]
    |psi|^2 = 0.085
==== e(  38) =     1.25520 eV ==== 
     psi = 0.049*[#   1]+0.038*[#   2]+0.010*[#  16]+0.006*[#  19]+0.002*[#   4]
          +0.002*[#   8]+0.002*[#  17]
    |psi|^2 = 0.109
==== e(  39) =     1.58155 eV ==== 
     psi = 0.025*[#  16]+0.016*[#  19]+0.008*[#  15]+0.005*[#   2]+0.002*[#   1]
          
    |psi|^2 = 0.059
==== e(  40) =     1.67206 eV ==== 
     psi = 0.002*[#  18]+0.001*[#  20]
    |psi|^2 = 0.005

 k =   0.0000000000  0.0000000000  0.1928064472
==== e(   1) =   -60.96784 eV ==== 
     psi = 0.971*[#  11]+0.007*[#   6]+0.006*[#  10]+0.003*[#   8]+0.003*[#   3]
          +0.003*[#   7]+0.003*[#   4]
    |psi|^2 = 1.000
==== e(   2) =   -37.56380 eV ==== 
     psi = 0.238*[#  13]+0.009*[#   3]+0.009*[#   7]+0.007*[#   6]+0.007*[#  10]
          +0.002*[#  14]
    |psi|^2 = 0.273
==== e(   3) =   -37.52753 eV ==== 
     psi = 0.933*[#  14]+0.726*[#  12]+0.018*[#   3]+0.018*[#   7]+0.007*[#   6]
          +0.006*[#  10]+0.001*[#   9]+0.001*[#   5]
    |psi|^2 = 1.711
==== e(   4) =   -37.39268 eV ==== 
     psi = 0.750*[#  13]+0.238*[#  12]+0.002*[#   1]+0.002*[#   5]+0.002*[#   9]
          +0.001*[#   2]
    |psi|^2 = 0.995
==== e(   5) =   -20.67114 eV ==== 
     psi = 0.428*[#   7]+0.422*[#   3]+0.087*[#  15]+0.030*[#  19]+0.015*[#  12]
          +0.007*[#  11]+0.004*[#  17]+0.003*[#  13]
    |psi|^2 = 0.999
==== e(   6) =   -20.33183 eV ==== 
     psi = 0.449*[#   3]+0.443*[#   7]+0.058*[#  18]+0.038*[#  14]+0.010*[#  20]
          +0.003*[#  12]
    |psi|^2 = 1.002
==== e(   7) =   -12.87406 eV ==== 
     psi = 0.484*[#   2]+0.451*[#   1]+0.020*[#  15]+0.013*[#  17]+0.008*[#  19]
          +0.002*[#  13]+0.001*[#  11]
    |psi|^2 = 0.982
==== e(   8) =    -7.51267 eV ==== 
     psi = 0.138*[#  19]+0.107*[#  16]+0.056*[#   5]+0.056*[#   9]+0.019*[#  10]
          +0.012*[#  17]+0.008*[#   6]+0.006*[#   3]+0.006*[#   7]+0.002*[#  18]
          +0.002*[#  11]
    |psi|^2 = 0.415
==== e(   9) =    -7.27454 eV ==== 
     psi = 0.318*[#   6]+0.311*[#  10]+0.257*[#  18]+0.039*[#  20]+0.017*[#   3]
          +0.017*[#   7]+0.011*[#   8]+0.007*[#  14]+0.004*[#   4]+0.003*[#   9]
          +0.002*[#   5]+0.002*[#  16]
    |psi|^2 = 0.988
==== e(  10) =    -7.12884 eV ==== 
     psi = 0.315*[#   9]+0.308*[#   5]+0.226*[#  20]+0.033*[#  18]+0.003*[#   8]
          +0.002*[#   4]
    |psi|^2 = 0.888
==== e(  11) =    -6.84138 eV ==== 
     psi = 0.342*[#   5]+0.334*[#   9]+0.086*[#  17]+0.070*[#  16]+0.056*[#   8]
          +0.053*[#   4]+0.017*[#  19]+0.005*[#   2]+0.004*[#   1]+0.003*[#  13]
          +0.001*[#  15]
    |psi|^2 = 0.972
==== e(  12) =    -6.50680 eV ==== 
     psi = 0.385*[#   6]+0.373*[#  10]+0.315*[#   8]+0.308*[#   4]+0.072*[#  17]
          +0.049*[#  19]+0.032*[#  16]+0.013*[#  15]+0.013*[#   3]+0.013*[#   7]
          +0.011*[#  11]+0.001*[#  13]+0.001*[#   9]
    |psi|^2 = 1.586
==== e(  13) =    -5.47975 eV ==== 
     psi = 0.406*[#   4]+0.392*[#   8]+0.070*[#   5]+0.069*[#   9]+0.027*[#  10]
          +0.012*[#   6]+0.009*[#  14]+0.001*[#   3]+0.001*[#   7]
    |psi|^2 = 0.987
==== e(  14) =    -2.97475 eV ==== 
     psi = 0.382*[#  15]+0.248*[#  19]+0.070*[#   4]+0.069*[#  16]+0.069*[#   8]
          +0.048*[#  17]+0.022*[#   9]+0.021*[#   5]+0.010*[#   2]+0.007*[#   3]
          +0.007*[#   7]+0.003*[#   1]+0.001*[#  13]
    |psi|^2 = 0.958
==== e(  15) =    -2.90502 eV ==== 
     psi = 0.317*[#  16]+0.077*[#   1]+0.075*[#   2]+0.056*[#  15]+0.051*[#  10]
          +0.047*[#   6]+0.043*[#  19]+0.041*[#  17]+0.011*[#   9]+0.010*[#   5]
          +0.003*[#   3]+0.003*[#   7]+0.002*[#  11]+0.001*[#  18]
    |psi|^2 = 0.738
==== e(  16) =    -1.95102 eV ==== 
     psi = 0.638*[#  17]+0.096*[#  15]+0.038*[#   5]+0.035*[#   1]+0.035*[#   9]
          +0.022*[#   8]+0.021*[#   4]+0.019*[#  16]+0.018*[#   6]+0.018*[#  10]
          +0.017*[#  19]+0.005*[#   2]+0.001*[#  12]+0.001*[#  20]
    |psi|^2 = 0.965
==== e(  17) =    -0.95125 eV ==== 
     psi = 0.516*[#  20]+0.148*[#  18]+0.107*[#   9]+0.105*[#   5]+0.019*[#   4]
          +0.017*[#   8]+0.003*[#   6]+0.003*[#  10]
    |psi|^2 = 0.920
==== e(  18) =    -0.72740 eV ==== 
     psi = 0.107*[#   8]+0.105*[#   4]+0.016*[#  16]+0.016*[#  19]+0.009*[#  17]
          +0.002*[#   9]+0.001*[#   5]+0.001*[#  10]+0.001*[#   6]+0.001*[#  15]
          +0.001*[#   2]
    |psi|^2 = 0.261
==== e(  19) =    -0.57655 eV ==== 
     psi = 0.115*[#  20]+0.080*[#  18]+0.066*[#   6]+0.058*[#  10]+0.005*[#   5]
          +0.005*[#   4]+0.004*[#   8]+0.004*[#   9]+0.003*[#   3]+0.003*[#  14]
          +0.003*[#   7]+0.001*[#   1]
    |psi|^2 = 0.350
==== e(  20) =    -0.32957 eV ==== 
     psi = 0.088*[#  16]+0.050*[#   2]+0.046*[#   1]+0.008*[#  15]+0.007*[#  10]
          +0.005*[#  19]+0.003*[#  17]+0.002*[#   6]+0.002*[#   8]+0.001*[#   4]
          
    |psi|^2 = 0.215
==== e(  21) =    -0.05926 eV ==== 
     psi = 0.073*[#  16]+0.045*[#   2]+0.034*[#   1]+0.012*[#  19]+0.011*[#   4]
          +0.011*[#   8]+0.004*[#  17]+0.003*[#  10]+0.002*[#   5]+0.002*[#   6]
          +0.002*[#   9]
    |psi|^2 = 0.200
==== e(  22) =     0.05855 eV ==== 
     psi = 0.029*[#  19]+0.024*[#  16]+0.013*[#  15]+0.007*[#   2]+0.006*[#   1]
          +0.002*[#   5]+0.002*[#   4]+0.002*[#   9]+0.002*[#   8]
    |psi|^2 = 0.088
==== e(  23) =     0.15946 eV ==== 
     psi = 0.008*[#   4]+0.008*[#   8]+0.005*[#   2]+0.003*[#   1]+0.002*[#  19]
          +0.002*[#  16]+0.001*[#  17]
    |psi|^2 = 0.030
==== e(  24) =     0.31811 eV ==== 
     psi = 0.045*[#   1]+0.035*[#   2]+0.023*[#  18]+0.012*[#   6]+0.012*[#  19]
          +0.007*[#  15]+0.006*[#  16]+0.005*[#  20]+0.004*[#  10]+0.003*[#   3]
          +0.002*[#   4]+0.002*[#   8]+0.001*[#  17]
    |psi|^2 = 0.159
==== e(  25) =     0.33160 eV ==== 
     psi = 0.060*[#  18]+0.024*[#  10]+0.022*[#   1]+0.018*[#   2]+0.015*[#   6]
          +0.011*[#  20]+0.007*[#  16]+0.004*[#   7]+0.003*[#  15]+0.002*[#  19]
          +0.001*[#  14]
    |psi|^2 = 0.169
==== e(  26) =     0.42714 eV ==== 
     psi = 0.015*[#  19]+0.010*[#  16]+0.010*[#   2]+0.007*[#   1]+0.002*[#   5]
          +0.002*[#   9]+0.002*[#  17]
    |psi|^2 = 0.051
==== e(  27) =     0.57298 eV ==== 
     psi = 0.043*[#  19]+0.029*[#  16]+0.004*[#   4]+0.004*[#   8]+0.003*[#   5]
          +0.003*[#  15]+0.003*[#   9]+0.002*[#  17]+0.002*[#   1]+0.002*[#   2]
          
    |psi|^2 = 0.096
==== e(  28) =     0.70339 eV ==== 
     psi = 0.006*[#  15]+0.005*[#  19]+0.003*[#   1]+0.002*[#   2]+0.002*[#   4]
          +0.002*[#   8]
    |psi|^2 = 0.022
==== e(  29) =     0.73595 eV ==== 
     psi = 0.022*[#  18]+0.006*[#   6]+0.006*[#  10]+0.003*[#  20]
    |psi|^2 = 0.040
==== e(  30) =     0.79667 eV ==== 
     psi = 0.027*[#  19]+0.016*[#  16]+0.012*[#   1]+0.011*[#   2]+0.008*[#  15]
          +0.003*[#   5]+0.002*[#   9]+0.001*[#   3]+0.001*[#   7]
    |psi|^2 = 0.085
==== e(  31) =     0.82482 eV ==== 
     psi = 0.008*[#  18]+0.007*[#   4]+0.007*[#   8]+0.004*[#  20]+0.001*[#   6]
          +0.001*[#  10]
    |psi|^2 = 0.030
==== e(  32) =     0.94326 eV ==== 
     psi = 0.039*[#  19]+0.016*[#  16]+0.006*[#   2]+0.005*[#   1]+0.004*[#  15]
          +0.003*[#   4]+0.002*[#   8]+0.001*[#   9]+0.001*[#  17]+0.001*[#   5]
          
    |psi|^2 = 0.083
==== e(  33) =     1.07245 eV ==== 
     psi = 0.057*[#  18]+0.015*[#   6]+0.014*[#  10]+0.007*[#  20]+0.002*[#   3]
          +0.002*[#   7]
    |psi|^2 = 0.101
==== e(  34) =     1.09618 eV ==== 
     psi = 0.008*[#   1]+0.006*[#   2]+0.004*[#  15]+0.002*[#  19]
    |psi|^2 = 0.024
==== e(  35) =     1.21026 eV ==== 
     psi = 0.023*[#  19]+0.010*[#  15]+0.009*[#   1]+0.008*[#   2]+0.008*[#  16]
          +0.002*[#   9]+0.001*[#   5]+0.001*[#   7]+0.001*[#   3]
    |psi|^2 = 0.067
==== e(  36) =     1.31089 eV ==== 
     psi = 0.008*[#  19]+0.005*[#   1]+0.003*[#   2]+0.003*[#  15]
    |psi|^2 = 0.022
==== e(  37) =     1.35762 eV ==== 
     psi = 0.019*[#  18]+0.004*[#   6]+0.004*[#  10]+0.003*[#  20]+0.002*[#  19]
          +0.001*[#   8]
    |psi|^2 = 0.037
==== e(  38) =     1.37159 eV ==== 
     psi = 0.038*[#  19]+0.015*[#  15]+0.015*[#  16]+0.006*[#   1]+0.004*[#   9]
          +0.003*[#   2]+0.003*[#   5]+0.002*[#  17]+0.002*[#   7]+0.002*[#   3]
          
    |psi|^2 = 0.093
==== e(  39) =     1.46905 eV ==== 
     psi = 0.009*[#   4]+0.009*[#   8]+0.008*[#  19]+0.006*[#  16]+0.005*[#   2]
          +0.005*[#   1]+0.002*[#  17]+0.002*[#  15]
    |psi|^2 = 0.047
==== e(  40) =     1.51845 eV ==== 
     psi = 0.004*[#   8]+0.003*[#   4]+0.002*[#  20]+0.001*[#  18]
    |psi|^2 = 0.011

 k =   0.0000000000  0.0000000000  0.3856128944
==== e(   1) =   -60.96785 eV ==== 
     psi = 0.971*[#  11]+0.007*[#   6]+0.006*[#  10]+0.003*[#   8]+0.003*[#   3]
          +0.003*[#   7]+0.003*[#   4]
    |psi|^2 = 1.000
==== e(   2) =   -37.56380 eV ==== 
     psi = 0.238*[#  13]+0.009*[#   3]+0.009*[#   7]+0.007*[#   6]+0.007*[#  10]
          +0.002*[#  14]
    |psi|^2 = 0.273
==== e(   3) =   -37.52753 eV ==== 
     psi = 0.933*[#  14]+0.726*[#  12]+0.018*[#   3]+0.018*[#   7]+0.007*[#   6]
          +0.006*[#  10]+0.001*[#   9]+0.001*[#   5]
    |psi|^2 = 1.711
==== e(   4) =   -37.39267 eV ==== 
     psi = 0.750*[#  13]+0.238*[#  12]+0.002*[#   1]+0.002*[#   5]+0.002*[#   9]
          +0.001*[#   2]
    |psi|^2 = 0.995
==== e(   5) =   -20.67114 eV ==== 
     psi = 0.428*[#   7]+0.422*[#   3]+0.087*[#  15]+0.030*[#  19]+0.015*[#  12]
          +0.007*[#  11]+0.004*[#  17]+0.003*[#  13]
    |psi|^2 = 0.999
==== e(   6) =   -20.33183 eV ==== 
     psi = 0.449*[#   3]+0.443*[#   7]+0.058*[#  18]+0.038*[#  14]+0.010*[#  20]
          +0.003*[#  12]
    |psi|^2 = 1.002
==== e(   7) =   -12.87405 eV ==== 
     psi = 0.484*[#   2]+0.451*[#   1]+0.020*[#  15]+0.013*[#  17]+0.008*[#  19]
          +0.002*[#  13]+0.001*[#  11]
    |psi|^2 = 0.982
==== e(   8) =    -7.51279 eV ==== 
     psi = 0.138*[#  19]+0.107*[#  16]+0.056*[#   5]+0.056*[#   9]+0.020*[#  10]
          +0.012*[#  17]+0.008*[#   6]+0.006*[#   3]+0.006*[#   7]+0.002*[#  18]
          +0.002*[#  11]
    |psi|^2 = 0.415
==== e(   9) =    -7.27450 eV ==== 
     psi = 0.318*[#   6]+0.311*[#  10]+0.257*[#  18]+0.039*[#  20]+0.017*[#   3]
          +0.017*[#   7]+0.011*[#   8]+0.007*[#  14]+0.004*[#   4]+0.003*[#   9]
          +0.002*[#   5]+0.001*[#  16]
    |psi|^2 = 0.988
==== e(  10) =    -7.12871 eV ==== 
     psi = 0.315*[#   9]+0.308*[#   5]+0.226*[#  20]+0.033*[#  18]+0.003*[#   8]
          +0.002*[#   4]
    |psi|^2 = 0.888
==== e(  11) =    -6.84124 eV ==== 
     psi = 0.342*[#   5]+0.334*[#   9]+0.086*[#  17]+0.070*[#  16]+0.056*[#   8]
          +0.053*[#   4]+0.017*[#  19]+0.005*[#   2]+0.004*[#   1]+0.003*[#  13]
          +0.001*[#  15]
    |psi|^2 = 0.972
==== e(  12) =    -6.50678 eV ==== 
     psi = 0.385*[#   6]+0.373*[#  10]+0.315*[#   8]+0.308*[#   4]+0.072*[#  17]
          +0.049*[#  19]+0.032*[#  16]+0.013*[#  15]+0.013*[#   3]+0.013*[#   7]
          +0.011*[#  11]+0.001*[#  13]+0.001*[#   9]
    |psi|^2 = 1.586
==== e(  13) =    -5.48017 eV ==== 
     psi = 0.406*[#   4]+0.392*[#   8]+0.070*[#   5]+0.069*[#   9]+0.027*[#  10]
          +0.012*[#   6]+0.009*[#  14]+0.001*[#   3]+0.001*[#   7]
    |psi|^2 = 0.987
==== e(  14) =    -2.97468 eV ==== 
     psi = 0.382*[#  15]+0.248*[#  19]+0.070*[#   4]+0.069*[#  16]+0.069*[#   8]
          +0.048*[#  17]+0.022*[#   9]+0.021*[#   5]+0.010*[#   2]+0.007*[#   3]
          +0.007*[#   7]+0.003*[#   1]+0.001*[#  13]
    |psi|^2 = 0.958
==== e(  15) =    -2.90513 eV ==== 
     psi = 0.317*[#  16]+0.077*[#   1]+0.075*[#   2]+0.056*[#  15]+0.051*[#  10]
          +0.047*[#   6]+0.043*[#  19]+0.041*[#  17]+0.011*[#   9]+0.010*[#   5]
          +0.003*[#   3]+0.003*[#   7]+0.002*[#  11]+0.001*[#  18]
    |psi|^2 = 0.738
==== e(  16) =    -1.95093 eV ==== 
     psi = 0.638*[#  17]+0.096*[#  15]+0.038*[#   5]+0.035*[#   1]+0.035*[#   9]
          +0.022*[#   8]+0.021*[#   4]+0.019*[#  16]+0.018*[#   6]+0.018*[#  10]
          +0.017*[#  19]+0.005*[#   2]+0.001*[#  12]+0.001*[#  20]
    |psi|^2 = 0.965
==== e(  17) =    -0.95122 eV ==== 
     psi = 0.516*[#  20]+0.148*[#  18]+0.107*[#   9]+0.105*[#   5]+0.019*[#   4]
          +0.017*[#   8]+0.003*[#   6]+0.003*[#  10]
    |psi|^2 = 0.920
==== e(  18) =    -0.68043 eV ==== 
     psi = 0.107*[#   8]+0.105*[#   4]+0.024*[#  16]+0.013*[#  19]+0.011*[#  17]
          +0.002*[#   2]+0.002*[#  15]+0.002*[#   6]+0.002*[#  10]+0.001*[#   9]
          +0.001*[#   5]
    |psi|^2 = 0.271
==== e(  19) =    -0.57579 eV ==== 
     psi = 0.115*[#  20]+0.081*[#  18]+0.066*[#   6]+0.059*[#  10]+0.005*[#   4]
          +0.005*[#   5]+0.005*[#   8]+0.004*[#   9]+0.004*[#   3]+0.003*[#  14]
          +0.003*[#   7]+0.001*[#   1]+0.001*[#   2]
    |psi|^2 = 0.353
==== e(  20) =    -0.42190 eV ==== 
     psi = 0.029*[#  16]+0.023*[#   1]+0.019*[#   2]+0.014*[#  19]+0.006*[#  15]
          +0.004*[#  10]+0.001*[#   8]+0.001*[#   4]+0.001*[#   7]
    |psi|^2 = 0.104
==== e(  21) =    -0.10828 eV ==== 
     psi = 0.137*[#  16]+0.087*[#   2]+0.067*[#   1]+0.017*[#   4]+0.016*[#   8]
          +0.008*[#  19]+0.006*[#  10]+0.004*[#  17]+0.003*[#   6]+0.002*[#  15]
          +0.002*[#   5]+0.001*[#   9]
    |psi|^2 = 0.349
==== e(  22) =     0.09318 eV ==== 
     psi = 0.031*[#  19]+0.025*[#  16]+0.012*[#  15]+0.005*[#   2]+0.004*[#   1]
          +0.002*[#   5]+0.002*[#   4]+0.002*[#   9]+0.001*[#   8]
    |psi|^2 = 0.085
==== e(  23) =     0.20182 eV ==== 
     psi = 0.008*[#   4]+0.009*[#   8]+0.005*[#   2]+0.004*[#   1]+0.001*[#  17]
          
    |psi|^2 = 0.030
==== e(  24) =     0.32991 eV ==== 
     psi = 0.043*[#   1]+0.033*[#   2]+0.006*[#  15]+0.004*[#  16]+0.002*[#   4]
          +0.002*[#  17]+0.002*[#   8]
    |psi|^2 = 0.094
==== e(  25) =     0.38775 eV ==== 
     psi = 0.085*[#  18]+0.028*[#   6]+0.027*[#  10]+0.016*[#  20]+0.003*[#   3]
          +0.003*[#   7]+0.002*[#  14]
    |psi|^2 = 0.168
==== e(  26) =     0.46731 eV ==== 
     psi = 0.018*[#  16]+0.013*[#  19]+0.007*[#   1]+0.006*[#   2]+0.004*[#  15]
          
    |psi|^2 = 0.053
==== e(  27) =     0.54078 eV ==== 
     psi = 0.059*[#  19]+0.012*[#  15]+0.010*[#   1]+0.005*[#   2]+0.004*[#   9]
          +0.003*[#   4]+0.003*[#   5]+0.003*[#   8]+0.003*[#   7]+0.002*[#   3]
          +0.002*[#  16]+0.001*[#  17]
    |psi|^2 = 0.109
==== e(  28) =     0.58312 eV ==== 
     psi = 0.024*[#  18]+0.007*[#   6]+0.006*[#  10]+0.005*[#  20]+0.001*[#   3]
          
    |psi|^2 = 0.047
==== e(  29) =     0.62191 eV ==== 
     psi = 0.018*[#   1]+0.018*[#   2]+0.017*[#  16]+0.011*[#  19]+0.004*[#   4]
          +0.004*[#   8]+0.002*[#  15]+0.001*[#   9]+0.001*[#  17]+0.001*[#   5]
          
    |psi|^2 = 0.080
==== e(  30) =     0.82770 eV ==== 
     psi = 0.013*[#  19]+0.011*[#  16]+0.008*[#   1]+0.008*[#   2]+0.003*[#  15]
          +0.002*[#  17]+0.002*[#   5]+0.001*[#   4]+0.001*[#   8]
    |psi|^2 = 0.054
==== e(  31) =     0.83113 eV ==== 
     psi = 0.007*[#  18]+0.004*[#   4]+0.004*[#   8]+0.002*[#  19]+0.002*[#  20]
          +0.002*[#  16]+0.001*[#   1]+0.001*[#   2]
    |psi|^2 = 0.028
==== e(  32) =     1.00959 eV ==== 
     psi = 0.039*[#  19]+0.014*[#  16]+0.006*[#   2]+0.004*[#   1]+0.002*[#   4]
          +0.002*[#  15]
    |psi|^2 = 0.072
==== e(  33) =     1.12427 eV ==== 
     psi = 0.057*[#  18]+0.015*[#   6]+0.014*[#  10]+0.008*[#  20]+0.002*[#   3]
          +0.002*[#   7]+0.001*[#  14]
    |psi|^2 = 0.101
==== e(  34) =     1.16009 eV ==== 
     psi = 0.018*[#   1]+0.014*[#   2]+0.006*[#  15]
    |psi|^2 = 0.041
==== e(  35) =     1.21286 eV ==== 
     psi = 0.030*[#  19]+0.008*[#  16]+0.006*[#  15]+0.003*[#  17]+0.002*[#   9]
          +0.002*[#   5]+0.001*[#   1]+0.001*[#   7]
    |psi|^2 = 0.058
==== e(  36) =     1.37052 eV ==== 

    |psi|^2 = 0.002
==== e(  37) =     1.38429 eV ==== 
     psi = 0.024*[#  19]+0.017*[#  16]+0.016*[#  15]+0.009*[#   8]+0.009*[#   4]
          +0.002*[#   7]+0.002*[#   3]+0.001*[#   5]
    |psi|^2 = 0.083
==== e(  38) =     1.43435 eV ==== 
     psi = 0.028*[#  19]+0.012*[#   1]+0.010*[#   2]+0.006*[#  15]+0.004*[#  18]
          +0.004*[#  16]+0.003*[#   6]+0.003*[#   5]+0.002*[#   9]+0.002*[#   3]
          +0.001*[#  17]+0.001*[#   4]
    |psi|^2 = 0.079
==== e(  39) =     1.44143 eV ==== 
     psi = 0.021*[#  18]+0.005*[#  10]+0.004*[#  19]+0.003*[#   6]+0.002*[#   1]
          +0.002*[#  20]+0.002*[#   2]+0.002*[#   4]+0.002*[#   8]+0.002*[#  16]
          +0.001*[#   7]+0.001*[#   9]
    |psi|^2 = 0.050
==== e(  40) =     1.51392 eV ==== 
     psi = 0.004*[#  15]+0.003*[#   4]+0.002*[#   8]+0.001*[#  16]+0.001*[#  19]
          
    |psi|^2 = 0.013

 k =   0.0000000000  0.2141052715  0.0000000000
==== e(   1) =   -60.96780 eV ==== 
     psi = 0.971*[#  11]+0.007*[#   6]+0.006*[#  10]+0.003*[#   8]+0.003*[#   3]
          +0.003*[#   7]+0.003*[#   4]
    |psi|^2 = 1.000
==== e(   2) =   -37.56380 eV ==== 
     psi = 0.238*[#  13]+0.009*[#   3]+0.009*[#   7]+0.007*[#   6]+0.007*[#  10]
          +0.002*[#  14]
    |psi|^2 = 0.273
==== e(   3) =   -37.52752 eV ==== 
     psi = 0.933*[#  14]+0.726*[#  12]+0.018*[#   3]+0.018*[#   7]+0.007*[#   6]
          +0.006*[#  10]+0.001*[#   9]+0.001*[#   5]
    |psi|^2 = 1.711
==== e(   4) =   -37.39267 eV ==== 
     psi = 0.750*[#  13]+0.238*[#  12]+0.002*[#   1]+0.002*[#   5]+0.002*[#   9]
          +0.001*[#   2]
    |psi|^2 = 0.995
==== e(   5) =   -20.67112 eV ==== 
     psi = 0.428*[#   7]+0.422*[#   3]+0.087*[#  15]+0.030*[#  19]+0.015*[#  12]
          +0.007*[#  11]+0.004*[#  17]+0.003*[#  13]
    |psi|^2 = 0.999
==== e(   6) =   -20.33182 eV ==== 
     psi = 0.449*[#   3]+0.443*[#   7]+0.058*[#  18]+0.038*[#  14]+0.010*[#  20]
          +0.003*[#  12]
    |psi|^2 = 1.002
==== e(   7) =   -12.87394 eV ==== 
     psi = 0.484*[#   2]+0.451*[#   1]+0.020*[#  15]+0.013*[#  17]+0.008*[#  19]
          +0.002*[#  13]+0.001*[#  11]
    |psi|^2 = 0.982
==== e(   8) =    -7.51212 eV ==== 
     psi = 0.138*[#  19]+0.107*[#  16]+0.056*[#   5]+0.056*[#   9]+0.019*[#  10]
          +0.012*[#  17]+0.008*[#   6]+0.006*[#   3]+0.006*[#   7]+0.002*[#  18]
          +0.002*[#  11]
    |psi|^2 = 0.415
==== e(   9) =    -7.27424 eV ==== 
     psi = 0.318*[#   6]+0.311*[#  10]+0.257*[#  18]+0.039*[#  20]+0.017*[#   3]
          +0.017*[#   7]+0.011*[#   8]+0.007*[#  14]+0.004*[#   4]+0.003*[#   9]
          +0.002*[#   5]+0.002*[#  16]
    |psi|^2 = 0.988
==== e(  10) =    -7.12829 eV ==== 
     psi = 0.315*[#   9]+0.308*[#   5]+0.226*[#  20]+0.033*[#  18]+0.003*[#   8]
          +0.002*[#   4]
    |psi|^2 = 0.888
==== e(  11) =    -6.84076 eV ==== 
     psi = 0.342*[#   5]+0.334*[#   9]+0.086*[#  17]+0.071*[#  16]+0.056*[#   8]
          +0.053*[#   4]+0.017*[#  19]+0.005*[#   2]+0.004*[#   1]+0.003*[#  13]
          +0.001*[#  15]
    |psi|^2 = 0.972
==== e(  12) =    -6.50659 eV ==== 
     psi = 0.385*[#   6]+0.373*[#  10]+0.315*[#   8]+0.308*[#   4]+0.072*[#  17]
          +0.049*[#  19]+0.032*[#  16]+0.013*[#  15]+0.013*[#   3]+0.013*[#   7]
          +0.011*[#  11]+0.001*[#  13]+0.001*[#   9]
    |psi|^2 = 1.586
==== e(  13) =    -5.47896 eV ==== 
     psi = 0.406*[#   4]+0.392*[#   8]+0.070*[#   5]+0.069*[#   9]+0.027*[#  10]
          +0.012*[#   6]+0.009*[#  14]+0.001*[#   3]+0.001*[#   7]
    |psi|^2 = 0.987
==== e(  14) =    -2.97457 eV ==== 
     psi = 0.382*[#  15]+0.248*[#  19]+0.070*[#   4]+0.070*[#  16]+0.069*[#   8]
          +0.048*[#  17]+0.022*[#   9]+0.021*[#   5]+0.010*[#   2]+0.007*[#   3]
          +0.007*[#   7]+0.003*[#   1]+0.001*[#  13]
    |psi|^2 = 0.958
==== e(  15) =    -2.90463 eV ==== 
     psi = 0.317*[#  16]+0.077*[#   1]+0.075*[#   2]+0.056*[#  15]+0.051*[#  10]
          +0.047*[#   6]+0.043*[#  19]+0.041*[#  17]+0.011*[#   9]+0.010*[#   5]
          +0.003*[#   3]+0.003*[#   7]+0.002*[#  11]+0.001*[#  18]
    |psi|^2 = 0.738
==== e(  16) =    -1.95071 eV ==== 
     psi = 0.638*[#  17]+0.096*[#  15]+0.038*[#   5]+0.035*[#   1]+0.035*[#   9]
          +0.022*[#   8]+0.021*[#   4]+0.019*[#  16]+0.018*[#   6]+0.018*[#  10]
          +0.017*[#  19]+0.005*[#   2]+0.001*[#  12]+0.001*[#  20]
    |psi|^2 = 0.965
==== e(  17) =    -0.95169 eV ==== 
     psi = 0.509*[#  20]+0.149*[#  18]+0.106*[#   9]+0.104*[#   5]+0.019*[#   4]
          +0.017*[#   8]+0.003*[#   6]+0.003*[#  10]
    |psi|^2 = 0.912
==== e(  18) =    -0.72902 eV ==== 
     psi = 0.106*[#   8]+0.104*[#   4]+0.019*[#  20]+0.014*[#  19]+0.012*[#  16]
          +0.007*[#  17]+0.006*[#   6]+0.005*[#  10]+0.003*[#  18]+0.003*[#   9]
          +0.003*[#   5]
    |psi|^2 = 0.284
==== e(  19) =    -0.58432 eV ==== 
     psi = 0.096*[#  20]+0.064*[#  18]+0.054*[#   6]+0.048*[#  10]+0.005*[#   5]
          +0.005*[#  16]+0.004*[#   4]+0.004*[#  19]+0.004*[#   9]+0.004*[#   8]
          +0.003*[#   3]+0.003*[#  14]+0.002*[#   7]+0.002*[#  17]+0.001*[#   2]
          
    |psi|^2 = 0.298
==== e(  20) =    -0.27577 eV ==== 
     psi = 0.137*[#  16]+0.078*[#   2]+0.067*[#   1]+0.009*[#  10]+0.009*[#  15]
          +0.006*[#   6]+0.003*[#  17]+0.003*[#   8]+0.003*[#   4]+0.003*[#  18]
          +0.001*[#  20]
    |psi|^2 = 0.321
==== e(  21) =    -0.06156 eV ==== 
     psi = 0.042*[#  18]+0.017*[#  10]+0.017*[#   6]+0.013*[#  20]+0.012*[#  19]
          +0.003*[#   1]+0.003*[#  17]+0.002*[#   3]+0.001*[#   7]+0.001*[#   8]
          +0.001*[#   9]+0.001*[#   4]+0.001*[#   5]
    |psi|^2 = 0.116
==== e(  22) =     0.07037 eV ==== 
     psi = 0.013*[#  15]+0.012*[#  19]+0.007*[#  16]+0.003*[#   1]+0.002*[#   2]
          +0.001*[#   8]+0.001*[#   4]
    |psi|^2 = 0.040
==== e(  23) =     0.12862 eV ==== 
     psi = 0.013*[#  16]+0.012*[#  18]+0.008*[#  19]+0.005*[#  10]+0.005*[#   6]
          +0.005*[#  17]+0.003*[#  20]+0.003*[#   4]+0.002*[#   8]+0.002*[#   2]
          +0.001*[#  15]
    |psi|^2 = 0.061
==== e(  24) =     0.22979 eV ==== 
     psi = 0.044*[#  19]+0.034*[#  16]+0.014*[#   2]+0.009*[#   1]+0.003*[#   5]
          +0.003*[#   9]+0.003*[#  15]+0.001*[#   3]+0.001*[#   7]+0.001*[#  18]
          
    |psi|^2 = 0.117
==== e(  25) =     0.28110 eV ==== 
     psi = 0.075*[#   1]+0.071*[#   2]+0.023*[#  16]+0.007*[#  15]+0.002*[#  19]
          +0.002*[#  10]
    |psi|^2 = 0.183
==== e(  26) =     0.54654 eV ==== 
     psi = 0.023*[#  19]+0.013*[#  18]+0.004*[#  16]+0.003*[#   6]+0.003*[#  10]
          +0.002*[#   5]+0.002*[#   9]
    |psi|^2 = 0.051
==== e(  27) =     0.61536 eV ==== 
     psi = 0.006*[#   2]+0.004*[#   1]+0.004*[#   8]+0.003*[#   4]+0.003*[#  16]
          
    |psi|^2 = 0.022
==== e(  28) =     0.63179 eV ==== 
     psi = 0.015*[#   1]+0.011*[#  18]+0.010*[#   2]+0.004*[#  20]+0.004*[#   6]
          +0.003*[#  10]+0.002*[#   4]+0.002*[#  17]+0.002*[#   8]+0.002*[#  15]
          +0.001*[#  16]
    |psi|^2 = 0.057
==== e(  29) =     0.69714 eV ==== 
     psi = 0.047*[#  18]+0.015*[#  19]+0.013*[#   6]+0.013*[#  10]+0.012*[#  16]
          +0.007*[#  20]+0.006*[#   8]+0.006*[#   4]+0.003*[#  17]+0.002*[#   3]
          +0.002*[#   7]
    |psi|^2 = 0.130
==== e(  30) =     0.78229 eV ==== 
     psi = 0.018*[#  19]+0.008*[#  18]+0.007*[#  15]+0.006*[#  16]+0.002*[#   1]
          +0.001*[#   7]+0.001*[#   3]+0.001*[#   6]
    |psi|^2 = 0.050
==== e(  31) =     0.84383 eV ==== 
     psi = 0.019*[#  16]+0.016*[#  18]+0.010*[#  19]+0.005*[#  10]+0.005*[#   6]
          +0.005*[#   8]+0.005*[#   4]+0.004*[#  20]+0.002*[#   1]
    |psi|^2 = 0.075
==== e(  32) =     0.88898 eV ==== 
     psi = 0.017*[#  19]+0.004*[#  16]+0.003*[#  18]+0.003*[#   2]+0.002*[#   1]
          +0.002*[#   5]+0.001*[#   6]+0.002*[#   9]+0.001*[#  10]
    |psi|^2 = 0.038
==== e(  33) =     0.96798 eV ==== 
     psi = 0.055*[#  19]+0.028*[#  15]+0.012*[#   8]+0.011*[#  16]+0.011*[#   4]
          +0.004*[#   7]+0.004*[#   9]+0.003*[#   3]+0.003*[#   5]+0.002*[#   1]
          +0.001*[#  17]+0.001*[#  18]
    |psi|^2 = 0.137
==== e(  34) =     1.13321 eV ==== 
     psi = 0.018*[#   1]+0.014*[#   2]+0.012*[#  16]+0.004*[#  15]+0.004*[#   8]
          +0.003*[#   4]
    |psi|^2 = 0.057
==== e(  35) =     1.24812 eV ==== 
     psi = 0.004*[#  18]+0.002*[#   4]+0.002*[#   8]+0.002*[#  16]+0.001*[#   1]
          +0.001*[#  20]+0.001*[#   2]+0.001*[#  19]
    |psi|^2 = 0.016
==== e(  36) =     1.34872 eV ==== 
     psi = 0.018*[#  19]+0.008*[#  18]+0.002*[#   6]+0.002*[#   5]+0.002*[#   9]
          +0.002*[#  10]+0.002*[#  16]+0.001*[#  15]+0.001*[#  17]
    |psi|^2 = 0.040
==== e(  37) =     1.39535 eV ==== 
     psi = 0.010*[#  19]+0.007*[#   2]+0.007*[#   1]+0.006*[#  16]+0.004*[#  18]
          +0.004*[#   8]+0.004*[#   4]+0.003*[#  15]
    |psi|^2 = 0.049
==== e(  38) =     1.44257 eV ==== 
     psi = 0.032*[#  18]+0.009*[#   6]+0.008*[#  10]+0.006*[#  20]+0.005*[#  16]
          +0.004*[#   1]+0.002*[#   2]+0.001*[#   3]
    |psi|^2 = 0.072
==== e(  39) =     1.47792 eV ==== 
     psi = 0.014*[#  19]+0.003*[#   2]+0.002*[#   1]+0.002*[#   4]+0.001*[#   8]
          
    |psi|^2 = 0.026
==== e(  40) =     1.51555 eV ==== 
     psi = 0.008*[#  18]+0.005*[#  19]+0.004*[#  15]+0.001*[#  17]+0.001*[#   1]
          
    |psi|^2 = 0.026

 k =   0.0000000000  0.2141052715  0.1928064472
==== e(   1) =   -60.96781 eV ==== 
     psi = 0.971*[#  11]+0.007*[#   6]+0.006*[#  10]+0.003*[#   8]+0.003*[#   3]
          +0.003*[#   7]+0.003*[#   4]
    |psi|^2 = 1.000
==== e(   2) =   -37.56380 eV ==== 
     psi = 0.238*[#  13]+0.009*[#   3]+0.009*[#   7]+0.007*[#   6]+0.007*[#  10]
          +0.002*[#  14]
    |psi|^2 = 0.273
==== e(   3) =   -37.52753 eV ==== 
     psi = 0.933*[#  14]+0.726*[#  12]+0.018*[#   3]+0.018*[#   7]+0.007*[#   6]
          +0.006*[#  10]+0.001*[#   9]+0.001*[#   5]
    |psi|^2 = 1.711
==== e(   4) =   -37.39267 eV ==== 
     psi = 0.750*[#  13]+0.238*[#  12]+0.002*[#   1]+0.002*[#   5]+0.002*[#   9]
          +0.001*[#   2]
    |psi|^2 = 0.995
==== e(   5) =   -20.67113 eV ==== 
     psi = 0.428*[#   7]+0.422*[#   3]+0.087*[#  15]+0.030*[#  19]+0.015*[#  12]
          +0.007*[#  11]+0.004*[#  17]+0.003*[#  13]
    |psi|^2 = 0.999
==== e(   6) =   -20.33182 eV ==== 
     psi = 0.449*[#   3]+0.443*[#   7]+0.058*[#  18]+0.038*[#  14]+0.010*[#  20]
          +0.003*[#  12]
    |psi|^2 = 1.002
==== e(   7) =   -12.87400 eV ==== 
     psi = 0.484*[#   2]+0.451*[#   1]+0.020*[#  15]+0.013*[#  17]+0.008*[#  19]
          +0.002*[#  13]+0.001*[#  11]
    |psi|^2 = 0.982
==== e(   8) =    -7.51226 eV ==== 
     psi = 0.138*[#  19]+0.107*[#  16]+0.056*[#   5]+0.056*[#   9]+0.019*[#  10]
          +0.012*[#  17]+0.008*[#   6]+0.006*[#   3]+0.006*[#   7]+0.002*[#  18]
          +0.002*[#  11]
    |psi|^2 = 0.415
==== e(   9) =    -7.27426 eV ==== 
     psi = 0.318*[#   6]+0.311*[#  10]+0.257*[#  18]+0.039*[#  20]+0.017*[#   3]
          +0.017*[#   7]+0.011*[#   8]+0.007*[#  14]+0.004*[#   4]+0.003*[#   9]
          +0.002*[#   5]+0.002*[#  16]
    |psi|^2 = 0.988
==== e(  10) =    -7.12841 eV ==== 
     psi = 0.315*[#   9]+0.308*[#   5]+0.226*[#  20]+0.033*[#  18]+0.003*[#   8]
          +0.002*[#   4]
    |psi|^2 = 0.888
==== e(  11) =    -6.84089 eV ==== 
     psi = 0.342*[#   5]+0.334*[#   9]+0.086*[#  17]+0.071*[#  16]+0.056*[#   8]
          +0.053*[#   4]+0.017*[#  19]+0.005*[#   2]+0.004*[#   1]+0.003*[#  13]
          +0.001*[#  15]
    |psi|^2 = 0.972
==== e(  12) =    -6.50672 eV ==== 
     psi = 0.385*[#   6]+0.373*[#  10]+0.315*[#   8]+0.308*[#   4]+0.072*[#  17]
          +0.049*[#  19]+0.032*[#  16]+0.013*[#  15]+0.013*[#   3]+0.013*[#   7]
          +0.011*[#  11]+0.001*[#  13]+0.001*[#   9]
    |psi|^2 = 1.586
==== e(  13) =    -5.47943 eV ==== 
     psi = 0.406*[#   4]+0.392*[#   8]+0.070*[#   5]+0.069*[#   9]+0.027*[#  10]
          +0.012*[#   6]+0.009*[#  14]+0.001*[#   3]+0.001*[#   7]
    |psi|^2 = 0.987
==== e(  14) =    -2.97455 eV ==== 
     psi = 0.382*[#  15]+0.248*[#  19]+0.070*[#   4]+0.070*[#  16]+0.069*[#   8]
          +0.048*[#  17]+0.022*[#   9]+0.021*[#   5]+0.010*[#   2]+0.007*[#   3]
          +0.007*[#   7]+0.003*[#   1]+0.001*[#  13]
    |psi|^2 = 0.958
==== e(  15) =    -2.90473 eV ==== 
     psi = 0.317*[#  16]+0.077*[#   1]+0.075*[#   2]+0.056*[#  15]+0.051*[#  10]
          +0.047*[#   6]+0.043*[#  19]+0.041*[#  17]+0.011*[#   9]+0.010*[#   5]
          +0.003*[#   3]+0.003*[#   7]+0.002*[#  11]+0.001*[#  18]
    |psi|^2 = 0.738
==== e(  16) =    -1.95079 eV ==== 
     psi = 0.638*[#  17]+0.096*[#  15]+0.038*[#   5]+0.035*[#   1]+0.035*[#   9]
          +0.022*[#   8]+0.021*[#   4]+0.019*[#  16]+0.018*[#   6]+0.018*[#  10]
          +0.017*[#  19]+0.005*[#   2]+0.001*[#  12]+0.001*[#  20]
    |psi|^2 = 0.965
==== e(  17) =    -0.95182 eV ==== 
     psi = 0.510*[#  20]+0.149*[#  18]+0.106*[#   9]+0.104*[#   5]+0.019*[#   4]
          +0.017*[#   8]+0.003*[#   6]+0.003*[#  10]
    |psi|^2 = 0.913
==== e(  18) =    -0.71152 eV ==== 
     psi = 0.106*[#   8]+0.104*[#   4]+0.023*[#  20]+0.013*[#  16]+0.013*[#  19]
          +0.009*[#   6]+0.007*[#  17]+0.006*[#  10]+0.005*[#  18]+0.003*[#   9]
          +0.003*[#   5]+0.001*[#   2]
    |psi|^2 = 0.296
==== e(  19) =    -0.57951 eV ==== 
     psi = 0.091*[#  20]+0.063*[#  18]+0.050*[#   6]+0.049*[#  10]+0.006*[#  16]
          +0.005*[#   5]+0.004*[#  19]+0.004*[#   4]+0.004*[#   8]+0.003*[#   9]
          +0.003*[#   7]+0.003*[#  17]+0.002*[#   3]+0.002*[#  14]+0.001*[#   2]
          
    |psi|^2 = 0.292
==== e(  20) =    -0.30968 eV ==== 
     psi = 0.096*[#  16]+0.056*[#   2]+0.052*[#   1]+0.009*[#  15]+0.006*[#  10]
          +0.005*[#   6]+0.005*[#  19]+0.003*[#   8]+0.003*[#   4]+0.002*[#  17]
          +0.002*[#  18]+0.001*[#  20]
    |psi|^2 = 0.242
==== e(  21) =    -0.08027 eV ==== 
     psi = 0.033*[#  16]+0.022*[#  18]+0.021*[#   2]+0.017*[#   1]+0.015*[#  19]
          +0.012*[#   6]+0.008*[#   8]+0.007*[#  20]+0.006*[#   4]+0.005*[#  10]
          +0.004*[#  17]+0.002*[#   5]+0.002*[#   9]
    |psi|^2 = 0.156
==== e(  22) =     0.02415 eV ==== 
     psi = 0.026*[#  18]+0.025*[#  16]+0.017*[#   2]+0.015*[#  10]+0.014*[#   1]
          +0.009*[#   6]+0.007*[#  20]+0.002*[#   4]+0.002*[#   8]+0.002*[#   3]
          +0.001*[#  19]+0.001*[#  15]
    |psi|^2 = 0.122
==== e(  23) =     0.09886 eV ==== 
     psi = 0.036*[#  16]+0.029*[#  19]+0.011*[#  15]+0.010*[#   2]+0.010*[#   1]
          +0.004*[#  10]+0.003*[#   4]+0.003*[#  18]+0.002*[#   5]+0.001*[#  20]
          +0.001*[#   6]+0.001*[#   9]
    |psi|^2 = 0.114
==== e(  24) =     0.28797 eV ==== 
     psi = 0.054*[#   1]+0.049*[#   2]+0.012*[#  16]+0.009*[#  15]+0.004*[#  19]
          +0.002*[#  10]+0.001*[#   7]
    |psi|^2 = 0.132
==== e(  25) =     0.41812 eV ==== 
     psi = 0.016*[#  19]+0.006*[#   1]+0.005*[#  18]+0.004*[#   2]+0.003*[#   8]
          +0.002*[#   4]+0.002*[#  17]+0.002*[#  16]+0.002*[#   9]+0.001*[#  10]
          +0.001*[#  20]+0.001*[#   5]+0.001*[#   6]
    |psi|^2 = 0.048
==== e(  26) =     0.45557 eV ==== 
     psi = 0.015*[#  19]+0.009*[#   2]+0.007*[#   1]+0.006*[#  16]+0.004*[#  18]
          +0.002*[#  17]+0.002*[#   5]+0.002*[#   9]+0.002*[#   8]+0.001*[#  10]
          +0.001*[#   4]+0.001*[#  15]+0.001*[#  20]
    |psi|^2 = 0.056
==== e(  27) =     0.56862 eV ==== 
     psi = 0.023*[#  19]+0.012*[#  16]+0.011*[#  18]+0.004*[#   8]+0.003*[#   4]
          +0.002*[#   6]+0.002*[#  10]+0.001*[#   5]
    |psi|^2 = 0.062
==== e(  28) =     0.61799 eV ==== 
     psi = 0.014*[#  18]+0.013*[#  16]+0.007*[#  19]+0.003*[#  10]+0.003*[#   6]
          +0.002*[#   4]+0.002*[#   8]+0.002*[#  15]+0.001*[#   1]+0.001*[#   7]
          
    |psi|^2 = 0.050
==== e(  29) =     0.67368 eV ==== 
     psi = 0.032*[#  18]+0.009*[#   6]+0.009*[#  20]+0.008*[#  10]+0.006*[#  19]
          +0.006*[#   8]+0.005*[#  16]+0.005*[#  15]+0.004*[#   1]+0.003*[#   7]
          +0.002*[#   2]+0.001*[#   4]
    |psi|^2 = 0.093
==== e(  30) =     0.75124 eV ==== 
     psi = 0.024*[#  19]+0.020*[#  18]+0.011*[#  15]+0.010*[#  16]+0.007*[#   6]
          +0.006*[#  10]+0.004*[#   3]+0.003*[#   5]+0.002*[#  20]
    |psi|^2 = 0.091
==== e(  31) =     0.84446 eV ==== 
     psi = 0.033*[#   1]+0.027*[#   2]+0.016*[#  19]+0.007*[#   4]+0.006*[#  15]
          +0.004*[#  18]+0.003*[#   8]+0.002*[#   6]+0.001*[#   7]+0.001*[#  10]
          
    |psi|^2 = 0.104
==== e(  32) =     0.98999 eV ==== 
     psi = 0.021*[#  19]+0.011*[#  18]+0.006*[#  16]+0.004*[#   6]+0.003*[#   4]
          +0.002*[#  15]+0.002*[#   9]+0.001*[#   5]+0.002*[#  17]+0.001*[#   1]
          
    |psi|^2 = 0.058
==== e(  33) =     1.08843 eV ==== 
     psi = 0.014*[#  16]+0.004*[#   4]+0.003*[#   8]+0.003*[#  19]+0.001*[#  15]
          
    |psi|^2 = 0.028
==== e(  34) =     1.15044 eV ==== 
     psi = 0.037*[#  19]+0.012*[#  16]+0.007*[#  15]+0.005*[#  18]+0.003*[#   6]
          +0.002*[#   3]+0.003*[#   5]+0.002*[#   9]+0.001*[#  10]+0.001*[#  20]
          
    |psi|^2 = 0.077
==== e(  35) =     1.21134 eV ==== 
     psi = 0.010*[#   4]+0.008*[#  18]+0.007*[#   8]+0.006*[#  19]+0.003*[#  10]
          +0.002*[#  20]+0.002*[#   2]+0.001*[#   1]+0.001*[#  16]
    |psi|^2 = 0.044
==== e(  36) =     1.26709 eV ==== 
     psi = 0.017*[#  18]+0.014*[#  19]+0.007*[#  15]+0.004*[#  10]+0.003*[#   4]
          +0.003*[#   7]+0.002*[#   6]+0.002*[#   9]+0.002*[#   8]+0.002*[#  20]
          +0.002*[#  16]
    |psi|^2 = 0.058
==== e(  37) =     1.33829 eV ==== 
     psi = 0.006*[#  15]+0.003*[#   1]+0.002*[#   2]+0.002*[#  20]+0.001*[#  19]
          
    |psi|^2 = 0.018
==== e(  38) =     1.40691 eV ==== 
     psi = 0.009*[#  18]+0.008*[#  15]+0.007*[#  16]+0.004*[#  19]+0.002*[#   1]
          +0.002*[#  10]+0.002*[#   6]+0.001*[#   2]+0.001*[#   3]
    |psi|^2 = 0.039
==== e(  39) =     1.52481 eV ==== 
     psi = 0.021*[#   1]+0.017*[#  19]+0.016*[#   2]+0.013*[#  18]+0.004*[#   6]
          +0.003*[#   4]+0.002*[#  10]+0.001*[#   8]+0.001*[#  17]+0.001*[#   5]
          +0.001*[#   9]+0.001*[#  15]+0.001*[#  20]
    |psi|^2 = 0.086
==== e(  40) =     1.68035 eV ==== 
     psi = 0.013*[#  16]+0.007*[#  19]+0.002*[#   2]+0.003*[#  15]+0.001*[#   1]
          
    |psi|^2 = 0.029

 k =   0.0000000000  0.2141052715  0.3856128944
==== e(   1) =   -60.96785 eV ==== 
     psi = 0.971*[#  11]+0.007*[#   6]+0.006*[#  10]+0.003*[#   8]+0.003*[#   3]
          +0.003*[#   7]+0.003*[#   4]
    |psi|^2 = 1.000
==== e(   2) =   -37.56380 eV ==== 
     psi = 0.238*[#  13]+0.009*[#   3]+0.009*[#   7]+0.007*[#   6]+0.007*[#  10]
          +0.002*[#  14]
    |psi|^2 = 0.273
==== e(   3) =   -37.52753 eV ==== 
     psi = 0.933*[#  14]+0.726*[#  12]+0.018*[#   3]+0.018*[#   7]+0.007*[#   6]
          +0.006*[#  10]+0.001*[#   9]+0.001*[#   5]
    |psi|^2 = 1.711
==== e(   4) =   -37.39267 eV ==== 
     psi = 0.750*[#  13]+0.238*[#  12]+0.002*[#   1]+0.002*[#   5]+0.002*[#   9]
          +0.001*[#   2]
    |psi|^2 = 0.995
==== e(   5) =   -20.67114 eV ==== 
     psi = 0.428*[#   7]+0.422*[#   3]+0.087*[#  15]+0.030*[#  19]+0.015*[#  12]
          +0.007*[#  11]+0.004*[#  17]+0.003*[#  13]
    |psi|^2 = 0.999
==== e(   6) =   -20.33182 eV ==== 
     psi = 0.449*[#   3]+0.443*[#   7]+0.058*[#  18]+0.038*[#  14]+0.010*[#  20]
          +0.003*[#  12]
    |psi|^2 = 1.002
==== e(   7) =   -12.87412 eV ==== 
     psi = 0.484*[#   2]+0.451*[#   1]+0.020*[#  15]+0.013*[#  17]+0.008*[#  19]
          +0.002*[#  13]+0.001*[#  11]
    |psi|^2 = 0.982
==== e(   8) =    -7.51264 eV ==== 
     psi = 0.138*[#  19]+0.107*[#  16]+0.056*[#   5]+0.056*[#   9]+0.019*[#  10]
          +0.012*[#  17]+0.008*[#   6]+0.006*[#   3]+0.006*[#   7]+0.002*[#  18]
          +0.002*[#  11]
    |psi|^2 = 0.415
==== e(   9) =    -7.27461 eV ==== 
     psi = 0.318*[#   6]+0.311*[#  10]+0.257*[#  18]+0.039*[#  20]+0.017*[#   3]
          +0.017*[#   7]+0.011*[#   8]+0.007*[#  14]+0.004*[#   4]+0.003*[#   9]
          +0.002*[#   5]+0.001*[#  16]
    |psi|^2 = 0.988
==== e(  10) =    -7.12885 eV ==== 
     psi = 0.315*[#   9]+0.308*[#   5]+0.226*[#  20]+0.033*[#  18]+0.003*[#   8]
          +0.002*[#   4]
    |psi|^2 = 0.888
==== e(  11) =    -6.84119 eV ==== 
     psi = 0.342*[#   5]+0.334*[#   9]+0.086*[#  17]+0.070*[#  16]+0.056*[#   8]
          +0.053*[#   4]+0.017*[#  19]+0.005*[#   2]+0.004*[#   1]+0.003*[#  13]
          +0.001*[#  15]
    |psi|^2 = 0.972
==== e(  12) =    -6.50677 eV ==== 
     psi = 0.385*[#   6]+0.373*[#  10]+0.315*[#   8]+0.308*[#   4]+0.072*[#  17]
          +0.049*[#  19]+0.032*[#  16]+0.013*[#  15]+0.013*[#   3]+0.013*[#   7]
          +0.011*[#  11]+0.001*[#  13]+0.001*[#   9]
    |psi|^2 = 1.586
==== e(  13) =    -5.48014 eV ==== 
     psi = 0.406*[#   4]+0.392*[#   8]+0.070*[#   5]+0.069*[#   9]+0.027*[#  10]
          +0.012*[#   6]+0.009*[#  14]+0.001*[#   3]+0.001*[#   7]
    |psi|^2 = 0.987
==== e(  14) =    -2.97454 eV ==== 
     psi = 0.381*[#  15]+0.248*[#  19]+0.070*[#  16]+0.070*[#   4]+0.069*[#   8]
          +0.048*[#  17]+0.022*[#   9]+0.021*[#   5]+0.010*[#   2]+0.007*[#   3]
          +0.007*[#   7]+0.003*[#   1]+0.001*[#  13]
    |psi|^2 = 0.958
==== e(  15) =    -2.90489 eV ==== 
     psi = 0.316*[#  16]+0.077*[#   1]+0.075*[#   2]+0.056*[#  15]+0.051*[#  10]
          +0.047*[#   6]+0.043*[#  19]+0.041*[#  17]+0.011*[#   9]+0.010*[#   5]
          +0.003*[#   3]+0.003*[#   7]+0.002*[#  11]+0.001*[#  18]
    |psi|^2 = 0.737
==== e(  16) =    -1.95096 eV ==== 
     psi = 0.638*[#  17]+0.096*[#  15]+0.038*[#   5]+0.035*[#   1]+0.035*[#   9]
          +0.022*[#   8]+0.021*[#   4]+0.019*[#  16]+0.018*[#   6]+0.018*[#  10]
          +0.017*[#  19]+0.005*[#   2]+0.001*[#  12]+0.001*[#  20]
    |psi|^2 = 0.965
==== e(  17) =    -0.95194 eV ==== 
     psi = 0.511*[#  20]+0.149*[#  18]+0.106*[#   9]+0.104*[#   5]+0.019*[#   4]
          +0.017*[#   8]+0.003*[#   6]+0.003*[#  10]
    |psi|^2 = 0.915
==== e(  18) =    -0.67427 eV ==== 
     psi = 0.106*[#   8]+0.104*[#   4]+0.036*[#  20]+0.016*[#   6]+0.016*[#  16]
          +0.013*[#  18]+0.012*[#  10]+0.009*[#  19]+0.007*[#  17]+0.003*[#   5]
          +0.003*[#   9]+0.002*[#   2]+0.001*[#  15]
    |psi|^2 = 0.332
==== e(  19) =    -0.57006 eV ==== 
     psi = 0.077*[#  20]+0.056*[#  18]+0.044*[#  10]+0.044*[#   6]+0.014*[#  16]
          +0.005*[#  17]+0.004*[#  19]+0.004*[#   8]+0.004*[#   4]+0.004*[#   5]
          +0.003*[#   9]+0.003*[#   2]+0.002*[#   7]+0.002*[#   3]+0.002*[#  14]
          +0.001*[#  15]
    |psi|^2 = 0.270
==== e(  20) =    -0.38999 eV ==== 
     psi = 0.031*[#  16]+0.026*[#   1]+0.022*[#   2]+0.016*[#  19]+0.006*[#  15]
          +0.003*[#   4]+0.003*[#   6]+0.003*[#   8]+0.003*[#  10]+0.003*[#  18]
          +0.001*[#  20]
    |psi|^2 = 0.122
==== e(  21) =    -0.11282 eV ==== 
     psi = 0.117*[#  16]+0.074*[#   2]+0.057*[#   1]+0.015*[#   4]+0.015*[#   8]
          +0.008*[#  19]+0.007*[#   6]+0.006*[#  18]+0.005*[#  10]+0.004*[#  17]
          +0.002*[#  20]+0.002*[#  15]+0.002*[#   5]+0.001*[#   9]
    |psi|^2 = 0.315
==== e(  22) =     0.05214 eV ==== 
     psi = 0.043*[#  18]+0.018*[#  10]+0.016*[#   6]+0.012*[#  20]+0.008*[#   1]
          +0.007*[#   2]+0.007*[#  16]+0.004*[#  19]+0.002*[#   3]+0.002*[#   4]
          +0.001*[#   8]+0.001*[#   7]+0.001*[#  14]
    |psi|^2 = 0.125
==== e(  23) =     0.13091 eV ==== 
     psi = 0.030*[#  16]+0.025*[#  19]+0.011*[#  15]+0.007*[#   1]+0.006*[#   2]
          +0.005*[#  18]+0.005*[#  10]+0.002*[#  20]+0.002*[#   6]+0.001*[#   5]
          
    |psi|^2 = 0.095
==== e(  24) =     0.24675 eV ==== 
     psi = 0.016*[#  19]+0.008*[#  16]+0.007*[#   2]+0.006*[#  18]+0.005*[#   1]
          +0.002*[#   5]+0.002*[#   9]+0.002*[#  20]+0.001*[#   6]+0.001*[#  10]
          
    |psi|^2 = 0.053
==== e(  25) =     0.31616 eV ==== 
     psi = 0.046*[#   1]+0.038*[#   2]+0.008*[#  15]+0.003*[#  16]+0.002*[#  19]
          
    |psi|^2 = 0.102
==== e(  26) =     0.50064 eV ==== 
     psi = 0.022*[#  16]+0.013*[#  19]+0.004*[#   2]+0.004*[#   1]+0.003*[#  15]
          +0.001*[#  17]
    |psi|^2 = 0.051
==== e(  27) =     0.56222 eV ==== 
     psi = 0.018*[#  19]+0.009*[#  15]+0.007*[#  16]+0.005*[#   4]+0.005*[#   8]
          +0.004*[#   1]+0.004*[#  18]+0.004*[#   2]+0.002*[#   7]+0.001*[#   9]
          
    |psi|^2 = 0.063
==== e(  28) =     0.62975 eV ==== 
     psi = 0.017*[#  18]+0.016*[#  19]+0.004*[#  10]+0.003*[#   6]+0.002*[#   1]
          +0.001*[#   2]+0.002*[#  16]+0.001*[#   5]+0.001*[#   9]
    |psi|^2 = 0.051
==== e(  29) =     0.73149 eV ==== 
     psi = 0.051*[#  18]+0.016*[#  10]+0.015*[#   6]+0.012*[#  20]+0.008*[#   1]
          +0.005*[#  19]+0.004*[#   2]+0.002*[#   7]+0.002*[#  15]+0.002*[#   3]
          +0.002*[#  17]+0.002*[#   8]+0.002*[#  16]+0.001*[#  14]
    |psi|^2 = 0.125
==== e(  30) =     0.83791 eV ==== 
     psi = 0.043*[#  19]+0.009*[#  15]+0.008*[#  16]+0.008*[#  18]+0.004*[#   6]
          +0.002*[#   1]+0.002*[#   5]+0.003*[#   9]+0.002*[#   3]+0.002*[#  17]
          +0.002*[#   7]
    |psi|^2 = 0.089
==== e(  31) =     0.85861 eV ==== 
     psi = 0.027*[#   1]+0.024*[#   2]+0.008*[#   8]+0.008*[#   4]+0.005*[#  18]
          +0.003*[#  16]+0.003*[#  19]+0.002*[#  10]+0.001*[#   6]+0.001*[#  17]
          +0.001*[#  20]
    |psi|^2 = 0.085
==== e(  32) =     0.98187 eV ==== 
     psi = 0.008*[#  19]+0.005*[#  18]+0.002*[#   4]+0.003*[#   8]+0.002*[#   6]
          +0.001*[#   1]
    |psi|^2 = 0.028
==== e(  33) =     1.03676 eV ==== 
     psi = 0.015*[#  16]+0.011*[#  19]+0.005*[#   4]+0.004*[#   8]+0.004*[#  15]
          +0.002*[#   1]+0.002*[#  18]+0.002*[#   2]
    |psi|^2 = 0.050
==== e(  34) =     1.11873 eV ==== 
     psi = 0.024*[#  19]+0.018*[#  18]+0.011*[#   1]+0.009*[#   2]+0.008*[#  15]
          +0.004*[#  10]+0.003*[#   6]+0.003*[#   7]+0.002*[#  20]+0.002*[#   9]
          +0.001*[#   5]+0.001*[#   3]
    |psi|^2 = 0.089
==== e(  35) =     1.27611 eV ==== 
     psi = 0.026*[#  19]+0.010*[#  16]+0.004*[#   8]+0.002*[#   5]+0.002*[#   4]
          +0.002*[#   9]+0.002*[#  17]+0.002*[#  15]+0.001*[#   1]
    |psi|^2 = 0.054
==== e(  36) =     1.31695 eV ==== 
     psi = 0.006*[#   2]+0.004*[#   1]+0.003*[#  16]+0.002*[#  19]+0.002*[#   8]
          +0.001*[#   4]
    |psi|^2 = 0.023
==== e(  37) =     1.39720 eV ==== 
     psi = 0.008*[#  16]+0.008*[#  18]+0.005*[#  15]+0.004*[#   8]+0.004*[#   1]
          +0.004*[#  19]+0.003*[#   2]+0.002*[#   4]+0.001*[#  17]+0.001*[#   6]
          +0.001*[#  10]
    |psi|^2 = 0.044
==== e(  38) =     1.42710 eV ==== 
     psi = 0.017*[#  19]+0.012*[#  18]+0.008*[#  15]+0.008*[#  16]+0.005*[#   6]
          +0.003*[#  10]+0.002*[#   3]+0.002*[#  20]
    |psi|^2 = 0.062
==== e(  39) =     1.58534 eV ==== 
     psi = 0.009*[#  19]+0.008*[#  16]+0.007*[#   4]+0.006*[#  18]+0.004*[#   1]
          +0.004*[#  15]+0.003*[#   8]+0.003*[#   2]+0.002*[#   6]+0.002*[#  10]
          +0.001*[#   3]
    |psi|^2 = 0.052
==== e(  40) =     1.70239 eV ==== 
     psi = 0.026*[#  19]+0.009*[#  15]+0.006*[#  16]+0.003*[#  18]+0.003*[#   9]
          +0.003*[#   5]+0.002*[#   7]+0.001*[#   1]+0.001*[#  17]+0.001*[#  10]
          
    |psi|^2 = 0.060

 k =   0.0000000000  0.4282105431  0.0000000000
==== e(   1) =   -60.96783 eV ==== 
     psi = 0.971*[#  11]+0.007*[#   6]+0.006*[#  10]+0.003*[#   8]+0.003*[#   3]
          +0.003*[#   7]+0.003*[#   4]
    |psi|^2 = 1.000
==== e(   2) =   -37.56380 eV ==== 
     psi = 0.238*[#  13]+0.009*[#   3]+0.009*[#   7]+0.007*[#   6]+0.007*[#  10]
          +0.002*[#  14]
    |psi|^2 = 0.273
==== e(   3) =   -37.52752 eV ==== 
     psi = 0.933*[#  14]+0.726*[#  12]+0.018*[#   3]+0.018*[#   7]+0.007*[#   6]
          +0.006*[#  10]+0.001*[#   9]+0.001*[#   5]
    |psi|^2 = 1.711
==== e(   4) =   -37.39267 eV ==== 
     psi = 0.750*[#  13]+0.238*[#  12]+0.002*[#   1]+0.002*[#   5]+0.002*[#   9]
          +0.001*[#   2]
    |psi|^2 = 0.995
==== e(   5) =   -20.67113 eV ==== 
     psi = 0.428*[#   7]+0.422*[#   3]+0.087*[#  15]+0.030*[#  19]+0.015*[#  12]
          +0.007*[#  11]+0.004*[#  17]+0.003*[#  13]
    |psi|^2 = 0.999
==== e(   6) =   -20.33181 eV ==== 
     psi = 0.449*[#   3]+0.443*[#   7]+0.058*[#  18]+0.038*[#  14]+0.010*[#  20]
          +0.003*[#  12]
    |psi|^2 = 1.002
==== e(   7) =   -12.87407 eV ==== 
     psi = 0.484*[#   2]+0.451*[#   1]+0.020*[#  15]+0.013*[#  17]+0.008*[#  19]
          +0.002*[#  13]+0.001*[#  11]
    |psi|^2 = 0.982
==== e(   8) =    -7.51236 eV ==== 
     psi = 0.138*[#  19]+0.107*[#  16]+0.056*[#   5]+0.056*[#   9]+0.019*[#  10]
          +0.012*[#  17]+0.008*[#   6]+0.006*[#   3]+0.006*[#   7]+0.002*[#  18]
          +0.002*[#  11]
    |psi|^2 = 0.415
==== e(   9) =    -7.27480 eV ==== 
     psi = 0.318*[#   6]+0.311*[#  10]+0.257*[#  18]+0.039*[#  20]+0.017*[#   3]
          +0.017*[#   7]+0.011*[#   8]+0.007*[#  14]+0.004*[#   4]+0.003*[#   9]
          +0.002*[#   5]+0.001*[#  16]
    |psi|^2 = 0.988
==== e(  10) =    -7.12807 eV ==== 
     psi = 0.315*[#   9]+0.308*[#   5]+0.226*[#  20]+0.033*[#  18]+0.003*[#   8]
          +0.002*[#   4]
    |psi|^2 = 0.888
==== e(  11) =    -6.84119 eV ==== 
     psi = 0.342*[#   5]+0.334*[#   9]+0.086*[#  17]+0.071*[#  16]+0.056*[#   8]
          +0.053*[#   4]+0.017*[#  19]+0.005*[#   2]+0.004*[#   1]+0.003*[#  13]
          +0.001*[#  15]
    |psi|^2 = 0.972
==== e(  12) =    -6.50625 eV ==== 
     psi = 0.385*[#   6]+0.373*[#  10]+0.315*[#   8]+0.308*[#   4]+0.072*[#  17]
          +0.049*[#  19]+0.032*[#  16]+0.013*[#  15]+0.013*[#   3]+0.013*[#   7]
          +0.011*[#  11]+0.001*[#  13]+0.001*[#   9]
    |psi|^2 = 1.586
==== e(  13) =    -5.47911 eV ==== 
     psi = 0.406*[#   4]+0.392*[#   8]+0.070*[#   5]+0.069*[#   9]+0.027*[#  10]
          +0.012*[#   6]+0.009*[#  14]+0.001*[#   3]+0.001*[#   7]
    |psi|^2 = 0.987
==== e(  14) =    -2.97437 eV ==== 
     psi = 0.381*[#  15]+0.248*[#  19]+0.070*[#  16]+0.070*[#   4]+0.069*[#   8]
          +0.048*[#  17]+0.022*[#   9]+0.021*[#   5]+0.010*[#   2]+0.007*[#   3]
          +0.007*[#   7]+0.003*[#   1]+0.001*[#  13]
    |psi|^2 = 0.959
==== e(  15) =    -2.90433 eV ==== 
     psi = 0.316*[#  16]+0.077*[#   1]+0.075*[#   2]+0.057*[#  15]+0.051*[#  10]
          +0.047*[#   6]+0.042*[#  19]+0.041*[#  17]+0.011*[#   9]+0.010*[#   5]
          +0.003*[#   3]+0.003*[#   7]+0.002*[#  11]+0.001*[#  18]
    |psi|^2 = 0.738
==== e(  16) =    -1.95090 eV ==== 
     psi = 0.638*[#  17]+0.096*[#  15]+0.038*[#   5]+0.035*[#   1]+0.035*[#   9]
          +0.022*[#   8]+0.021*[#   4]+0.019*[#  16]+0.018*[#   6]+0.018*[#  10]
          +0.017*[#  19]+0.005*[#   2]+0.001*[#  12]+0.001*[#  20]
    |psi|^2 = 0.965
==== e(  17) =    -0.95328 eV ==== 
     psi = 0.500*[#  20]+0.150*[#  18]+0.105*[#   9]+0.102*[#   5]+0.019*[#   4]
          +0.017*[#   8]+0.004*[#   6]+0.003*[#  10]
    |psi|^2 = 0.902
==== e(  18) =    -0.69192 eV ==== 
     psi = 0.105*[#   8]+0.102*[#   4]+0.082*[#  20]+0.028*[#   6]+0.025*[#  10]
          +0.021*[#  18]+0.006*[#   5]+0.005*[#   9]+0.004*[#  19]+0.004*[#  16]
          +0.002*[#  17]+0.001*[#   3]+0.001*[#  14]+0.001*[#   7]
    |psi|^2 = 0.389
==== e(  19) =    -0.59361 eV ==== 
     psi = 0.024*[#  20]+0.023*[#  16]+0.018*[#  19]+0.016*[#  18]+0.014*[#   6]
          +0.013*[#  10]+0.009*[#  17]+0.003*[#   2]+0.003*[#   8]+0.003*[#   9]
          +0.003*[#   5]+0.002*[#   4]
    |psi|^2 = 0.134
==== e(  20) =    -0.26147 eV ==== 
     psi = 0.078*[#  16]+0.049*[#   2]+0.042*[#   1]+0.041*[#  18]+0.029*[#   6]
          +0.018*[#  20]+0.014*[#  10]+0.006*[#   4]+0.005*[#   8]+0.005*[#  15]
          +0.002*[#   3]+0.002*[#  17]+0.001*[#  14]+0.001*[#  19]
    |psi|^2 = 0.296
==== e(  21) =    -0.20756 eV ==== 
     psi = 0.064*[#  16]+0.041*[#   1]+0.040*[#   2]+0.037*[#  18]+0.029*[#  10]
          +0.015*[#  20]+0.013*[#   6]+0.004*[#   4]+0.004*[#  15]+0.003*[#  19]
          +0.002*[#   7]+0.002*[#   8]+0.001*[#   3]+0.001*[#  14]
    |psi|^2 = 0.258
==== e(  22) =     0.15421 eV ==== 
     psi = 0.020*[#  19]+0.014*[#  15]+0.012*[#  16]+0.003*[#   1]+0.002*[#   2]
          +0.001*[#   5]
    |psi|^2 = 0.054
==== e(  23) =     0.21395 eV ==== 
     psi = 0.018*[#  16]+0.014*[#  19]+0.007*[#  17]+0.005*[#   2]+0.005*[#   4]
          +0.004*[#   8]+0.004*[#  18]+0.002*[#  10]+0.002*[#   5]+0.002*[#   6]
          +0.002*[#   9]+0.001*[#   1]+0.001*[#  20]
    |psi|^2 = 0.067
==== e(  24) =     0.29816 eV ==== 
     psi = 0.022*[#   2]+0.018*[#   1]+0.016*[#  16]+0.008*[#  19]+0.001*[#  18]
          +0.001*[#   4]+0.001*[#   5]+0.001*[#  15]
    |psi|^2 = 0.073
==== e(  25) =     0.35377 eV ==== 
     psi = 0.049*[#  19]+0.012*[#  16]+0.010*[#  18]+0.009*[#   8]+0.009*[#   4]
          +0.003*[#   5]+0.003*[#   9]+0.002*[#  15]+0.002*[#   6]+0.002*[#  10]
          +0.002*[#   7]+0.001*[#   3]
    |psi|^2 = 0.106
==== e(  26) =     0.37389 eV ==== 
     psi = 0.023*[#   1]+0.019*[#   2]+0.007*[#  15]+0.005*[#  16]+0.003*[#   4]
          +0.003*[#   8]+0.003*[#  18]+0.003*[#  20]+0.002*[#  10]+0.002*[#   6]
          +0.001*[#  19]
    |psi|^2 = 0.072
==== e(  27) =     0.42427 eV ==== 
     psi = 0.027*[#   2]+0.025*[#   1]+0.010*[#  18]+0.007*[#  16]+0.003*[#   6]
          +0.003*[#  10]+0.002*[#  20]+0.001*[#  19]
    |psi|^2 = 0.081
==== e(  28) =     0.48518 eV ==== 
     psi = 0.016*[#   1]+0.013*[#   2]+0.012*[#  18]+0.005*[#  10]+0.005*[#   6]
          +0.003*[#  20]+0.002*[#  17]
    |psi|^2 = 0.060
==== e(  29) =     0.54737 eV ==== 
     psi = 0.025*[#  18]+0.023*[#  19]+0.016*[#   1]+0.011*[#   2]+0.008*[#  15]
          +0.006*[#   6]+0.006*[#  10]+0.004*[#   8]+0.004*[#   4]+0.003*[#  20]
          +0.002*[#   3]+0.002*[#   7]+0.001*[#  16]
    |psi|^2 = 0.115
==== e(  30) =     0.86590 eV ==== 
     psi = 0.048*[#  16]+0.020*[#  19]+0.002*[#  15]+0.001*[#  17]+0.001*[#  18]
          
    |psi|^2 = 0.079
==== e(  31) =     0.97288 eV ==== 
     psi = 0.031*[#  19]+0.014*[#   4]+0.014*[#   8]+0.003*[#   5]+0.002*[#   9]
          +0.002*[#  15]+0.002*[#  18]+0.002*[#   2]+0.001*[#   6]
    |psi|^2 = 0.076
==== e(  32) =     1.02389 eV ==== 
     psi = 0.009*[#  18]+0.006*[#  16]+0.006*[#  15]+0.004*[#  19]+0.003*[#   6]
          +0.003*[#  10]+0.002*[#  20]
    |psi|^2 = 0.035
==== e(  33) =     1.07520 eV ==== 
     psi = 0.049*[#  19]+0.022*[#  18]+0.020*[#  15]+0.009*[#   8]+0.008*[#   4]
          +0.005*[#  16]+0.004*[#   6]+0.004*[#  10]+0.004*[#   9]+0.004*[#   5]
          +0.004*[#   7]+0.003*[#   3]+0.002*[#   1]+0.002*[#  17]
    |psi|^2 = 0.143
==== e(  34) =     1.17502 eV ==== 
     psi = 0.004*[#   8]+0.004*[#   4]+0.003*[#  20]+0.003*[#  15]+0.002*[#  18]
          +0.001*[#  19]+0.001*[#   1]
    |psi|^2 = 0.022
==== e(  35) =     1.22266 eV ==== 
     psi = 0.016*[#  18]+0.007*[#  16]+0.006*[#   1]+0.005*[#   2]+0.005*[#  15]
          +0.004*[#   6]+0.004*[#  10]+0.002*[#  19]
    |psi|^2 = 0.054
==== e(  36) =     1.23116 eV ==== 
     psi = 0.003*[#  16]+0.003*[#  18]+0.002*[#  20]+0.001*[#   6]+0.001*[#  10]
          +0.001*[#  19]
    |psi|^2 = 0.012
==== e(  37) =     1.27541 eV ==== 
     psi = 0.015*[#  19]+0.005*[#  15]+0.003*[#   1]+0.003*[#   2]+0.002*[#   8]
          +0.002*[#   4]+0.001*[#   9]+0.001*[#  18]+0.001*[#   5]
    |psi|^2 = 0.035
==== e(  38) =     1.43069 eV ==== 
     psi = 0.018*[#   1]+0.012*[#   2]+0.010*[#  16]+0.005*[#  15]+0.001*[#   8]
          +0.001*[#   4]
    |psi|^2 = 0.050
==== e(  39) =     1.55315 eV ==== 
     psi = 0.029*[#  18]+0.010*[#  19]+0.007*[#   6]+0.006*[#  10]+0.006*[#   1]
          +0.003*[#   2]+0.003*[#  17]+0.002*[#   9]+0.001*[#   5]+0.001*[#  20]
          +0.001*[#   4]+0.001*[#   8]
    |psi|^2 = 0.074
==== e(  40) =     1.74420 eV ==== 
     psi = 0.002*[#   1]+0.002*[#  18]+0.002*[#  17]+0.001*[#  20]
    |psi|^2 = 0.010

 k =   0.0000000000  0.4282105431  0.1928064472
==== e(   1) =   -60.96782 eV ==== 
     psi = 0.971*[#  11]+0.007*[#   6]+0.006*[#  10]+0.003*[#   8]+0.003*[#   3]
          +0.003*[#   7]+0.003*[#   4]
    |psi|^2 = 1.000
==== e(   2) =   -37.56380 eV ==== 
     psi = 0.238*[#  13]+0.009*[#   3]+0.009*[#   7]+0.007*[#   6]+0.007*[#  10]
          +0.002*[#  14]
    |psi|^2 = 0.273
==== e(   3) =   -37.52752 eV ==== 
     psi = 0.933*[#  14]+0.726*[#  12]+0.018*[#   3]+0.018*[#   7]+0.007*[#   6]
          +0.006*[#  10]+0.001*[#   9]+0.001*[#   5]
    |psi|^2 = 1.711
==== e(   4) =   -37.39267 eV ==== 
     psi = 0.750*[#  13]+0.238*[#  12]+0.002*[#   1]+0.002*[#   5]+0.002*[#   9]
          +0.001*[#   2]
    |psi|^2 = 0.995
==== e(   5) =   -20.67112 eV ==== 
     psi = 0.428*[#   7]+0.422*[#   3]+0.087*[#  15]+0.030*[#  19]+0.015*[#  12]
          +0.007*[#  11]+0.004*[#  17]+0.003*[#  13]
    |psi|^2 = 0.999
==== e(   6) =   -20.33181 eV ==== 
     psi = 0.449*[#   3]+0.443*[#   7]+0.058*[#  18]+0.038*[#  14]+0.010*[#  20]
          +0.003*[#  12]
    |psi|^2 = 1.002
==== e(   7) =   -12.87404 eV ==== 
     psi = 0.484*[#   2]+0.451*[#   1]+0.020*[#  15]+0.013*[#  17]+0.008*[#  19]
          +0.002*[#  13]+0.001*[#  11]
    |psi|^2 = 0.982
==== e(   8) =    -7.51221 eV ==== 
     psi = 0.138*[#  19]+0.107*[#  16]+0.056*[#   5]+0.056*[#   9]+0.019*[#  10]
          +0.012*[#  17]+0.008*[#   6]+0.006*[#   3]+0.006*[#   7]+0.002*[#  18]
          +0.002*[#  11]
    |psi|^2 = 0.415
==== e(   9) =    -7.27467 eV ==== 
     psi = 0.318*[#   6]+0.311*[#  10]+0.257*[#  18]+0.039*[#  20]+0.017*[#   3]
          +0.017*[#   7]+0.011*[#   8]+0.007*[#  14]+0.004*[#   4]+0.003*[#   9]
          +0.002*[#   5]+0.001*[#  16]
    |psi|^2 = 0.988
==== e(  10) =    -7.12819 eV ==== 
     psi = 0.315*[#   9]+0.308*[#   5]+0.226*[#  20]+0.033*[#  18]+0.003*[#   8]
          +0.002*[#   4]
    |psi|^2 = 0.888
==== e(  11) =    -6.84090 eV ==== 
     psi = 0.342*[#   5]+0.334*[#   9]+0.086*[#  17]+0.071*[#  16]+0.056*[#   8]
          +0.053*[#   4]+0.017*[#  19]+0.005*[#   2]+0.004*[#   1]+0.003*[#  13]
          +0.001*[#  15]
    |psi|^2 = 0.972
==== e(  12) =    -6.50642 eV ==== 
     psi = 0.385*[#   6]+0.373*[#  10]+0.315*[#   8]+0.308*[#   4]+0.072*[#  17]
          +0.049*[#  19]+0.032*[#  16]+0.013*[#  15]+0.013*[#   3]+0.013*[#   7]
          +0.011*[#  11]+0.001*[#  13]+0.001*[#   9]
    |psi|^2 = 1.586
==== e(  13) =    -5.47915 eV ==== 
     psi = 0.406*[#   4]+0.392*[#   8]+0.070*[#   5]+0.069*[#   9]+0.027*[#  10]
          +0.012*[#   6]+0.009*[#  14]+0.001*[#   3]+0.001*[#   7]
    |psi|^2 = 0.987
==== e(  14) =    -2.97431 eV ==== 
     psi = 0.381*[#  15]+0.249*[#  19]+0.071*[#  16]+0.070*[#   4]+0.069*[#   8]
          +0.047*[#  17]+0.022*[#   9]+0.021*[#   5]+0.010*[#   2]+0.007*[#   3]
          +0.007*[#   7]+0.003*[#   1]+0.001*[#  13]
    |psi|^2 = 0.959
==== e(  15) =    -2.90436 eV ==== 
     psi = 0.316*[#  16]+0.077*[#   1]+0.075*[#   2]+0.057*[#  15]+0.051*[#  10]
          +0.047*[#   6]+0.042*[#  19]+0.041*[#  17]+0.011*[#   9]+0.009*[#   5]
          +0.003*[#   3]+0.003*[#   7]+0.002*[#  11]+0.001*[#  18]
    |psi|^2 = 0.737
==== e(  16) =    -1.95075 eV ==== 
     psi = 0.638*[#  17]+0.096*[#  15]+0.038*[#   5]+0.035*[#   1]+0.035*[#   9]
          +0.022*[#   8]+0.021*[#   4]+0.019*[#  16]+0.018*[#   6]+0.018*[#  10]
          +0.017*[#  19]+0.005*[#   2]+0.001*[#  12]+0.001*[#  20]
    |psi|^2 = 0.966
==== e(  17) =    -0.95309 eV ==== 
     psi = 0.501*[#  20]+0.150*[#  18]+0.105*[#   9]+0.103*[#   5]+0.019*[#   4]
          +0.017*[#   8]+0.004*[#   6]+0.003*[#  10]
    |psi|^2 = 0.903
==== e(  18) =    -0.68366 eV ==== 
     psi = 0.105*[#   8]+0.103*[#   4]+0.087*[#  20]+0.032*[#   6]+0.027*[#  10]
          +0.025*[#  18]+0.006*[#   5]+0.006*[#   9]+0.003*[#  16]+0.003*[#  19]
          +0.002*[#   3]+0.001*[#  14]+0.002*[#  17]+0.001*[#   7]
    |psi|^2 = 0.405
==== e(  19) =    -0.57859 eV ==== 
     psi = 0.027*[#  16]+0.019*[#  20]+0.018*[#  19]+0.014*[#  10]+0.014*[#  18]
          +0.011*[#   6]+0.010*[#  17]+0.004*[#   2]+0.003*[#   8]+0.003*[#   5]
          +0.003*[#   9]+0.002*[#   4]+0.001*[#  15]
    |psi|^2 = 0.130
==== e(  20) =    -0.26629 eV ==== 
     psi = 0.100*[#  16]+0.063*[#   2]+0.059*[#   1]+0.016*[#  18]+0.014*[#   6]
          +0.008*[#  15]+0.008*[#  10]+0.007*[#  20]+0.006*[#   4]+0.006*[#   8]
          +0.003*[#  19]+0.002*[#  17]+0.001*[#   3]
    |psi|^2 = 0.296
==== e(  21) =    -0.21044 eV ==== 
     psi = 0.055*[#  18]+0.026*[#  10]+0.025*[#   6]+0.023*[#  20]+0.011*[#   1]
          +0.009*[#  16]+0.008*[#   2]+0.006*[#  19]+0.002*[#   3]+0.002*[#   7]
          +0.001*[#  14]+0.001*[#  15]
    |psi|^2 = 0.174
==== e(  22) =     0.06171 eV ==== 
     psi = 0.051*[#  16]+0.034*[#   2]+0.026*[#   1]+0.010*[#  19]+0.009*[#  10]
          +0.007*[#  18]+0.002*[#  17]+0.002*[#  20]+0.002*[#   6]+0.001*[#   5]
          +0.001*[#   9]
    |psi|^2 = 0.149
==== e(  23) =     0.16829 eV ==== 
     psi = 0.020*[#  19]+0.014*[#  16]+0.012*[#  15]+0.009*[#   4]+0.006*[#   8]
          +0.003*[#  10]+0.003*[#   1]+0.002*[#  18]+0.002*[#   2]+0.001*[#   5]
          
    |psi|^2 = 0.076
==== e(  24) =     0.19470 eV ==== 
     psi = 0.023*[#  19]+0.018*[#  16]+0.012*[#  18]+0.009*[#   2]+0.007*[#   1]
          +0.005*[#   6]+0.004*[#  20]+0.002*[#   5]+0.002*[#   9]+0.002*[#  10]
          +0.001*[#   4]+0.001*[#   8]+0.001*[#  17]
    |psi|^2 = 0.090
==== e(  25) =     0.37845 eV ==== 
     psi = 0.021*[#   1]+0.019*[#   2]+0.011*[#  18]+0.009*[#  19]+0.003*[#   6]
          +0.002*[#  10]+0.001*[#  15]
    |psi|^2 = 0.069
==== e(  26) =     0.39017 eV ==== 
     psi = 0.024*[#   1]+0.021*[#   2]+0.007*[#  15]+0.007*[#  16]+0.002*[#  20]
          +0.001*[#  10]
    |psi|^2 = 0.066
==== e(  27) =     0.52146 eV ==== 
     psi = 0.021*[#   1]+0.020*[#   2]+0.019*[#  18]+0.006*[#  10]+0.004*[#   6]
          +0.003*[#  20]+0.002*[#  15]+0.001*[#  17]
    |psi|^2 = 0.080
==== e(  28) =     0.55859 eV ==== 
     psi = 0.031*[#  19]+0.009*[#  18]+0.006*[#  15]+0.006*[#  16]+0.003*[#  17]
          +0.003*[#   6]+0.002*[#   7]+0.002*[#   9]+0.002*[#   5]+0.002*[#  10]
          +0.002*[#   1]+0.002*[#  20]
    |psi|^2 = 0.071
==== e(  29) =     0.73605 eV ==== 
     psi = 0.033*[#  19]+0.025*[#  16]+0.010*[#   8]+0.009*[#   4]+0.007*[#  15]
          +0.004*[#   2]+0.004*[#   1]+0.002*[#   5]+0.002*[#  18]+0.002*[#   3]
          +0.002*[#   9]+0.001*[#   6]+0.001*[#   7]+0.001*[#  17]
    |psi|^2 = 0.102
==== e(  30) =     0.78210 eV ==== 
     psi = 0.030*[#  19]+0.009*[#  18]+0.007*[#  16]+0.006*[#  15]+0.004*[#   6]
          +0.003*[#  10]+0.002*[#   3]+0.002*[#   5]+0.002*[#   9]+0.002*[#   4]
          +0.002*[#   8]+0.001*[#  20]+0.001*[#   1]+0.001*[#  17]
    |psi|^2 = 0.073
==== e(  31) =     0.88071 eV ==== 
     psi = 0.010*[#   1]+0.008*[#   2]+0.007*[#   4]+0.006*[#  15]+0.006*[#  19]
          +0.004*[#   8]+0.002*[#  16]
    |psi|^2 = 0.047
==== e(  32) =     0.94936 eV ==== 
     psi = 0.009*[#  16]+0.004*[#  19]+0.003*[#   1]+0.002*[#   2]+0.002*[#   4]
          +0.002*[#   8]
    |psi|^2 = 0.026
==== e(  33) =     1.04284 eV ==== 
     psi = 0.030*[#  18]+0.007*[#   6]+0.007*[#  10]+0.004*[#  15]+0.003*[#   1]
          +0.003*[#  20]+0.003*[#   2]+0.002*[#   7]+0.002*[#   8]+0.001*[#  19]
          
    |psi|^2 = 0.065
==== e(  34) =     1.10973 eV ==== 
     psi = 0.013*[#  18]+0.012*[#  19]+0.012*[#   1]+0.007*[#   2]+0.007*[#  15]
          +0.004*[#  10]+0.004*[#   6]+0.002*[#  20]+0.002*[#  16]+0.002*[#   3]
          +0.001*[#   9]+0.001*[#  17]+0.001*[#   5]
    |psi|^2 = 0.070
==== e(  35) =     1.19237 eV ==== 
     psi = 0.042*[#  19]+0.024*[#  16]+0.007*[#  15]+0.005*[#   2]+0.003*[#   1]
          +0.002*[#   5]+0.002*[#   9]+0.002*[#   7]+0.001*[#   3]+0.001*[#   4]
          +0.001*[#  10]+0.001*[#  18]
    |psi|^2 = 0.095
==== e(  36) =     1.45266 eV ==== 
     psi = 0.013*[#  18]+0.005*[#  19]+0.004*[#  15]+0.004*[#   1]+0.003*[#   2]
          +0.002*[#  16]+0.002*[#  10]+0.002*[#   6]+0.001*[#   7]+0.001*[#   8]
          +0.001*[#   4]+0.001*[#   9]
    |psi|^2 = 0.042
==== e(  37) =     1.49450 eV ==== 
     psi = 0.013*[#  19]+0.008*[#  16]+0.004*[#   8]+0.004*[#  15]+0.004*[#   4]
          +0.002*[#  18]+0.002*[#   5]
    |psi|^2 = 0.043
==== e(  38) =     1.56888 eV ==== 
     psi = 0.012*[#  19]+0.010*[#  18]+0.003*[#   1]+0.003*[#   6]+0.003*[#  17]
          +0.002*[#  10]+0.002*[#   5]+0.002*[#   2]+0.002*[#   4]+0.002*[#   9]
          +0.001*[#  20]
    |psi|^2 = 0.042
==== e(  39) =     1.62188 eV ==== 
     psi = 0.010*[#  18]+0.004*[#  19]+0.004*[#   6]+0.003*[#  10]+0.002*[#  16]
          +0.002*[#  15]+0.002*[#  20]+0.001*[#   4]
    |psi|^2 = 0.030
==== e(  40) =     1.66723 eV ==== 
     psi = 0.017*[#  18]+0.007*[#   1]+0.004*[#  16]+0.004*[#   2]+0.004*[#   6]
          +0.003*[#  19]+0.003*[#  10]+0.003*[#  15]+0.002*[#  20]+0.002*[#   4]
          +0.002*[#   3]+0.002*[#   8]+0.001*[#  17]
    |psi|^2 = 0.054

 k =   0.0000000000  0.4282105431  0.3856128944
==== e(   1) =   -60.96782 eV ==== 
     psi = 0.971*[#  11]+0.007*[#   6]+0.006*[#  10]+0.003*[#   8]+0.003*[#   3]
          +0.003*[#   7]+0.003*[#   4]
    |psi|^2 = 1.000
==== e(   2) =   -37.56380 eV ==== 
     psi = 0.238*[#  13]+0.009*[#   3]+0.009*[#   7]+0.007*[#   6]+0.007*[#  10]
          +0.002*[#  14]
    |psi|^2 = 0.273
==== e(   3) =   -37.52752 eV ==== 
     psi = 0.933*[#  14]+0.726*[#  12]+0.018*[#   3]+0.018*[#   7]+0.007*[#   6]
          +0.006*[#  10]+0.001*[#   9]+0.001*[#   5]
    |psi|^2 = 1.711
==== e(   4) =   -37.39267 eV ==== 
     psi = 0.750*[#  13]+0.238*[#  12]+0.002*[#   1]+0.002*[#   5]+0.002*[#   9]
          +0.001*[#   2]
    |psi|^2 = 0.995
==== e(   5) =   -20.67113 eV ==== 
     psi = 0.428*[#   7]+0.422*[#   3]+0.087*[#  15]+0.030*[#  19]+0.015*[#  12]
          +0.007*[#  11]+0.004*[#  17]+0.003*[#  13]
    |psi|^2 = 0.999
==== e(   6) =   -20.33181 eV ==== 
     psi = 0.449*[#   3]+0.443*[#   7]+0.058*[#  18]+0.038*[#  14]+0.010*[#  20]
          +0.003*[#  12]
    |psi|^2 = 1.002
==== e(   7) =   -12.87411 eV ==== 
     psi = 0.484*[#   2]+0.451*[#   1]+0.020*[#  15]+0.013*[#  17]+0.008*[#  19]
          +0.002*[#  13]+0.001*[#  11]
    |psi|^2 = 0.982
==== e(   8) =    -7.51249 eV ==== 
     psi = 0.138*[#  19]+0.107*[#  16]+0.056*[#   5]+0.056*[#   9]+0.019*[#  10]
          +0.012*[#  17]+0.008*[#   6]+0.006*[#   3]+0.006*[#   7]+0.002*[#  18]
          +0.002*[#  11]
    |psi|^2 = 0.415
==== e(   9) =    -7.27453 eV ==== 
     psi = 0.318*[#   6]+0.311*[#  10]+0.257*[#  18]+0.039*[#  20]+0.017*[#   3]
          +0.017*[#   7]+0.011*[#   8]+0.007*[#  14]+0.004*[#   4]+0.003*[#   9]
          +0.002*[#   5]+0.001*[#  16]
    |psi|^2 = 0.988
==== e(  10) =    -7.12840 eV ==== 
     psi = 0.315*[#   9]+0.308*[#   5]+0.226*[#  20]+0.033*[#  18]+0.003*[#   8]
          +0.002*[#   4]
    |psi|^2 = 0.888
==== e(  11) =    -6.84094 eV ==== 
     psi = 0.342*[#   5]+0.334*[#   9]+0.086*[#  17]+0.070*[#  16]+0.056*[#   8]
          +0.053*[#   4]+0.017*[#  19]+0.005*[#   2]+0.004*[#   1]+0.003*[#  13]
          +0.001*[#  15]
    |psi|^2 = 0.972
==== e(  12) =    -6.50626 eV ==== 
     psi = 0.385*[#   6]+0.373*[#  10]+0.315*[#   8]+0.308*[#   4]+0.072*[#  17]
          +0.049*[#  19]+0.032*[#  16]+0.013*[#  15]+0.013*[#   3]+0.013*[#   7]
          +0.011*[#  11]+0.001*[#  13]+0.001*[#   9]
    |psi|^2 = 1.586
==== e(  13) =    -5.47975 eV ==== 
     psi = 0.406*[#   4]+0.392*[#   8]+0.070*[#   5]+0.069*[#   9]+0.027*[#  10]
          +0.012*[#   6]+0.009*[#  14]+0.001*[#   3]+0.001*[#   7]
    |psi|^2 = 0.987
==== e(  14) =    -2.97424 eV ==== 
     psi = 0.381*[#  15]+0.249*[#  19]+0.071*[#  16]+0.070*[#   4]+0.069*[#   8]
          +0.047*[#  17]+0.022*[#   9]+0.021*[#   5]+0.010*[#   2]+0.007*[#   3]
          +0.007*[#   7]+0.003*[#   1]+0.001*[#  13]
    |psi|^2 = 0.959
==== e(  15) =    -2.90445 eV ==== 
     psi = 0.315*[#  16]+0.077*[#   1]+0.075*[#   2]+0.057*[#  15]+0.051*[#  10]
          +0.047*[#   6]+0.042*[#  19]+0.041*[#  17]+0.011*[#   9]+0.009*[#   5]
          +0.003*[#   3]+0.003*[#   7]+0.002*[#  11]+0.001*[#  18]
    |psi|^2 = 0.737
==== e(  16) =    -1.95087 eV ==== 
     psi = 0.638*[#  17]+0.096*[#  15]+0.038*[#   5]+0.035*[#   1]+0.035*[#   9]
          +0.022*[#   8]+0.021*[#   4]+0.020*[#  16]+0.018*[#   6]+0.018*[#  10]
          +0.017*[#  19]+0.005*[#   2]+0.001*[#  12]+0.001*[#  20]
    |psi|^2 = 0.966
==== e(  17) =    -0.95293 eV ==== 
     psi = 0.503*[#  20]+0.150*[#  18]+0.105*[#   9]+0.103*[#   5]+0.019*[#   4]
          +0.017*[#   8]+0.004*[#   6]+0.003*[#  10]
    |psi|^2 = 0.906
==== e(  18) =    -0.66878 eV ==== 
     psi = 0.105*[#   8]+0.103*[#   4]+0.097*[#  20]+0.039*[#   6]+0.034*[#  18]
          +0.034*[#  10]+0.006*[#   5]+0.005*[#   9]+0.002*[#  16]+0.002*[#   3]
          +0.002*[#  14]+0.002*[#  19]+0.001*[#   7]
    |psi|^2 = 0.435
==== e(  19) =    -0.54735 eV ==== 
     psi = 0.041*[#  16]+0.015*[#  19]+0.013*[#  17]+0.011*[#  10]+0.011*[#  20]
          +0.009*[#  18]+0.008*[#   6]+0.007*[#   2]+0.003*[#   8]+0.003*[#  15]
          +0.002*[#   5]+0.002*[#   9]+0.001*[#   4]
    |psi|^2 = 0.129
==== e(  20) =    -0.31220 eV ==== 
     psi = 0.046*[#  16]+0.041*[#   1]+0.035*[#   2]+0.018*[#  19]+0.007*[#  15]
          +0.006*[#   4]+0.005*[#   8]+0.003*[#   6]+0.003*[#  10]+0.002*[#  18]
          +0.001*[#   9]+0.001*[#   7]+0.001*[#   3]+0.001*[#  20]
    |psi|^2 = 0.174
==== e(  21) =    -0.17495 eV ==== 
     psi = 0.047*[#  18]+0.026*[#   6]+0.019*[#  20]+0.016*[#  10]+0.013*[#  16]
          +0.010*[#   2]+0.008*[#   1]+0.004*[#   8]+0.002*[#  19]+0.002*[#   3]
          +0.001*[#   4]+0.001*[#  14]+0.001*[#   7]
    |psi|^2 = 0.153
==== e(  22) =    -0.03276 eV ==== 
     psi = 0.050*[#  16]+0.036*[#  18]+0.032*[#   2]+0.027*[#   1]+0.026*[#  10]
          +0.012*[#  20]+0.010*[#   6]+0.002*[#  19]+0.001*[#   3]+0.001*[#   7]
          
    |psi|^2 = 0.201
==== e(  23) =     0.04012 eV ==== 
     psi = 0.052*[#  16]+0.041*[#   2]+0.031*[#   1]+0.012*[#  19]+0.007*[#   4]
          +0.007*[#  18]+0.004*[#   6]+0.002*[#   8]+0.002*[#  20]+0.002*[#   5]
          +0.001*[#   9]+0.001*[#  17]
    |psi|^2 = 0.163
==== e(  24) =     0.20148 eV ==== 
     psi = 0.039*[#  19]+0.030*[#  16]+0.011*[#  15]+0.005*[#   1]+0.005*[#   2]
          +0.002*[#   5]+0.002*[#   9]
    |psi|^2 = 0.097
==== e(  25) =     0.39775 eV ==== 
     psi = 0.034*[#   1]+0.028*[#   2]+0.006*[#  18]+0.006*[#  15]+0.003*[#  19]
          +0.002*[#  10]+0.001*[#   6]
    |psi|^2 = 0.084
==== e(  26) =     0.43187 eV ==== 
     psi = 0.007*[#   1]+0.006*[#   2]+0.003*[#  15]+0.003*[#  16]+0.003*[#  19]
          +0.002*[#  20]+0.001*[#  18]
    |psi|^2 = 0.026
==== e(  27) =     0.54569 eV ==== 
     psi = 0.025*[#  18]+0.007*[#   6]+0.007*[#  10]+0.004*[#  16]+0.004*[#  20]
          +0.002*[#  15]+0.001*[#   7]
    |psi|^2 = 0.054
==== e(  28) =     0.63958 eV ==== 
     psi = 0.022*[#  19]+0.018*[#  16]+0.012*[#  15]+0.005*[#  18]+0.003*[#   3]
          +0.002*[#   6]+0.002*[#   2]+0.002*[#  10]+0.002*[#   1]+0.002*[#   5]
          +0.001*[#   9]+0.001*[#  17]
    |psi|^2 = 0.075
==== e(  29) =     0.71210 eV ==== 
     psi = 0.024*[#  19]+0.019*[#   1]+0.016*[#   2]+0.006*[#  15]+0.002*[#   8]
          +0.002*[#   4]+0.001*[#   7]+0.001*[#  16]+0.001*[#  18]+0.001*[#   9]
          
    |psi|^2 = 0.077
==== e(  30) =     0.80066 eV ==== 
     psi = 0.006*[#  16]+0.004*[#   1]+0.004*[#  19]+0.003*[#   2]+0.001*[#   8]
          
    |psi|^2 = 0.021
==== e(  31) =     0.85633 eV ==== 
     psi = 0.051*[#  19]+0.014*[#  18]+0.014*[#  15]+0.006*[#   1]+0.004*[#   2]
          +0.004*[#   9]+0.003*[#   6]+0.003*[#   7]+0.003*[#   5]+0.003*[#  16]
          +0.003*[#  10]+0.002*[#   3]+0.002*[#  20]+0.001*[#  17]
    |psi|^2 = 0.114
==== e(  32) =     0.97814 eV ==== 
     psi = 0.016*[#   1]+0.014*[#   2]+0.010*[#  19]+0.010*[#  16]+0.007*[#  18]
          +0.004*[#  17]+0.001*[#   6]+0.001*[#  10]+0.002*[#  15]+0.001*[#   5]
          +0.001*[#  20]+0.001*[#   9]
    |psi|^2 = 0.071
==== e(  33) =     1.13142 eV ==== 
     psi = 0.018*[#  19]+0.017*[#  18]+0.009*[#   1]+0.006*[#   6]+0.005*[#   2]
          +0.005*[#  10]+0.003*[#  15]+0.003*[#  17]+0.002*[#   4]+0.002*[#   5]
          +0.002*[#   9]+0.002*[#  20]+0.001*[#   3]+0.001*[#   8]
    |psi|^2 = 0.077
==== e(  34) =     1.17657 eV ==== 
     psi = 0.016*[#  18]+0.004*[#   1]+0.004*[#   6]+0.004*[#  10]+0.004*[#   2]
          +0.003*[#  20]+0.003*[#  16]+0.002*[#   4]+0.002*[#   8]
    |psi|^2 = 0.045
==== e(  35) =     1.35508 eV ==== 
     psi = 0.017*[#  19]+0.007*[#   2]+0.006*[#   1]+0.004*[#  16]+0.004*[#  15]
          +0.003*[#  17]+0.002*[#   5]+0.002*[#   9]+0.001*[#   8]
    |psi|^2 = 0.050
==== e(  36) =     1.42432 eV ==== 
     psi = 0.037*[#  16]+0.036*[#  19]+0.008*[#  15]+0.003*[#   2]+0.001*[#   3]
          +0.002*[#   7]+0.001*[#   1]+0.001*[#  18]
    |psi|^2 = 0.093
==== e(  37) =     1.48582 eV ==== 
     psi = 0.006*[#  19]+0.002*[#  15]+0.002*[#  18]+0.002*[#   8]
    |psi|^2 = 0.017
==== e(  38) =     1.56025 eV ==== 
     psi = 0.042*[#  18]+0.009*[#  10]+0.008*[#   6]+0.002*[#  16]+0.002*[#   7]
          +0.001*[#   9]+0.001*[#  20]+0.001*[#  19]
    |psi|^2 = 0.072
==== e(  39) =     1.62930 eV ==== 
     psi = 0.004*[#  19]+0.003*[#  18]+0.001*[#  16]+0.001*[#  15]
    |psi|^2 = 0.013
==== e(  40) =     1.74730 eV ==== 
     psi = 0.006*[#  20]+0.001*[#   1]+0.001*[#   8]+0.001*[#  18]+0.001*[#  17]
          
    |psi|^2 = 0.016

 k =   0.2000000000  0.0000000000  0.0000000000
==== e(   1) =   -60.96779 eV ==== 
     psi = 0.971*[#  11]+0.007*[#   6]+0.006*[#  10]+0.003*[#   8]+0.003*[#   3]
          +0.003*[#   7]+0.003*[#   4]
    |psi|^2 = 1.000
==== e(   2) =   -37.56380 eV ==== 
     psi = 0.238*[#  13]+0.009*[#   3]+0.009*[#   7]+0.007*[#   6]+0.007*[#  10]
          +0.002*[#  14]
    |psi|^2 = 0.273
==== e(   3) =   -37.52753 eV ==== 
     psi = 0.933*[#  14]+0.726*[#  12]+0.018*[#   3]+0.018*[#   7]+0.007*[#   6]
          +0.006*[#  10]+0.001*[#   9]+0.001*[#   5]
    |psi|^2 = 1.711
==== e(   4) =   -37.39267 eV ==== 
[...]
          +0.002*[#   5]+0.002*[#  16]
    |psi|^2 = 0.988
==== e(  10) =    -7.12913 eV ==== 
     psi = 0.315*[#   9]+0.308*[#   5]+0.226*[#  20]+0.033*[#  18]+0.003*[#   8]
          +0.002*[#   4]
    |psi|^2 = 0.888
==== e(  11) =    -6.84134 eV ==== 
     psi = 0.342*[#   5]+0.334*[#   9]+0.086*[#  17]+0.070*[#  16]+0.056*[#   8]
          +0.053*[#   4]+0.017*[#  19]+0.005*[#   2]+0.004*[#   1]+0.003*[#  13]
          +0.001*[#  15]
    |psi|^2 = 0.972
==== e(  12) =    -6.50661 eV ==== 
     psi = 0.385*[#   6]+0.373*[#  10]+0.315*[#   8]+0.308*[#   4]+0.072*[#  17]
          +0.049*[#  19]+0.032*[#  16]+0.013*[#   3]+0.013*[#  15]+0.013*[#   7]
          +0.011*[#  11]+0.001*[#  13]+0.001*[#   9]
    |psi|^2 = 1.586
==== e(  13) =    -5.47975 eV ==== 
     psi = 0.406*[#   4]+0.392*[#   8]+0.070*[#   5]+0.069*[#   9]+0.027*[#  10]
          +0.012*[#   6]+0.009*[#  14]+0.001*[#   3]+0.001*[#   7]
    |psi|^2 = 0.987
==== e(  14) =    -2.97387 eV ==== 
     psi = 0.380*[#  15]+0.249*[#  19]+0.071*[#  16]+0.070*[#   4]+0.069*[#   8]
          +0.047*[#  17]+0.022*[#   9]+0.021*[#   5]+0.010*[#   2]+0.007*[#   3]
          +0.007*[#   7]+0.003*[#   1]+0.001*[#  13]
    |psi|^2 = 0.959
==== e(  15) =    -2.90422 eV ==== 
     psi = 0.315*[#  16]+0.077*[#   1]+0.075*[#   2]+0.057*[#  15]+0.051*[#  10]
          +0.047*[#   6]+0.042*[#  19]+0.041*[#  17]+0.011*[#   9]+0.009*[#   5]
          +0.003*[#   3]+0.003*[#   7]+0.002*[#  11]+0.001*[#  18]
    |psi|^2 = 0.737
==== e(  16) =    -1.95150 eV ==== 
     psi = 0.639*[#  17]+0.095*[#  15]+0.038*[#   5]+0.035*[#   9]+0.035*[#   1]
          +0.022*[#   8]+0.021*[#   4]+0.019*[#  16]+0.018*[#   6]+0.018*[#  10]
          +0.017*[#  19]+0.005*[#   2]+0.001*[#  12]+0.001*[#  20]
    |psi|^2 = 0.965
==== e(  17) =    -0.95286 eV ==== 
     psi = 0.507*[#  20]+0.149*[#  18]+0.106*[#   9]+0.103*[#   5]+0.019*[#   4]
          +0.017*[#   8]+0.003*[#   6]+0.003*[#  10]
    |psi|^2 = 0.910
==== e(  18) =    -0.63383 eV ==== 
     psi = 0.109*[#  20]+0.106*[#   8]+0.103*[#   4]+0.052*[#  18]+0.051*[#   6]
          +0.045*[#  10]+0.006*[#   5]+0.005*[#   9]+0.002*[#   3]+0.002*[#  14]
          +0.002*[#   7]
    |psi|^2 = 0.487
==== e(  19) =    -0.45306 eV ==== 
     psi = 0.076*[#  16]+0.021*[#   2]+0.013*[#  17]+0.011*[#  19]+0.008*[#   1]
          +0.007*[#  10]+0.006*[#  15]+0.005*[#   6]+0.003*[#  18]+0.003*[#   8]
          +0.003*[#  20]+0.002*[#   9]+0.001*[#   5]
    |psi|^2 = 0.160
==== e(  20) =    -0.31823 eV ==== 
     psi = 0.035*[#  16]+0.015*[#   2]+0.012*[#   1]+0.010*[#  15]+0.009*[#  19]
          +0.006*[#   4]+0.005*[#   8]+0.002*[#   6]+0.001*[#  17]+0.001*[#  10]
          
    |psi|^2 = 0.099
==== e(  21) =    -0.12037 eV ==== 
     psi = 0.020*[#  19]+0.011*[#   1]+0.009*[#   2]+0.004*[#  16]+0.002*[#   4]
          +0.002*[#   8]+0.002*[#  18]+0.002*[#   5]+0.002*[#  10]+0.002*[#  15]
          +0.001*[#  17]+0.001*[#  20]
    |psi|^2 = 0.060
==== e(  22) =    -0.10010 eV ==== 
     psi = 0.015*[#  18]+0.008*[#   1]+0.007*[#   6]+0.007*[#   2]+0.007*[#  20]
          +0.006*[#  10]+0.002*[#  19]+0.002*[#   4]
    |psi|^2 = 0.058
==== e(  23) =    -0.02355 eV ==== 
     psi = 0.050*[#   1]+0.044*[#   2]+0.038*[#  16]+0.024*[#  19]+0.014*[#  18]
          +0.011*[#  15]+0.009*[#  10]+0.008*[#   6]+0.004*[#  20]+0.002*[#   3]
          +0.001*[#   5]+0.001*[#   9]+0.001*[#  17]
    |psi|^2 = 0.209
==== e(  24) =     0.06450 eV ==== 
     psi = 0.021*[#  19]+0.016*[#  18]+0.014*[#   1]+0.010*[#   2]+0.009*[#  10]
          +0.006*[#  16]+0.005*[#  15]+0.004*[#   6]+0.003*[#  20]+0.002*[#   7]
          +0.002*[#   9]+0.002*[#   5]
    |psi|^2 = 0.095
==== e(  25) =     0.13180 eV ==== 
     psi = 0.041*[#  18]+0.016*[#  10]+0.014*[#   6]+0.012*[#  20]+0.007*[#  19]
          +0.007*[#   1]+0.005*[#   2]+0.002*[#  16]+0.002*[#   3]+0.002*[#   7]
          +0.001*[#   4]
    |psi|^2 = 0.113
==== e(  26) =     0.22953 eV ==== 
     psi = 0.049*[#  16]+0.041*[#   2]+0.040*[#   1]+0.025*[#  18]+0.010*[#   6]
          +0.005*[#  20]+0.003*[#  19]+0.002*[#  10]+0.001*[#   7]
    |psi|^2 = 0.178
==== e(  27) =     0.36112 eV ==== 
     psi = 0.045*[#  16]+0.024*[#   2]+0.022*[#   1]+0.016*[#  19]+0.010*[#   8]
          +0.007*[#  18]+0.006*[#  10]+0.005*[#   4]+0.003*[#  15]+0.002*[#   5]
          +0.002*[#   3]+0.001*[#   6]+0.001*[#   9]+0.001*[#  20]+0.001*[#  17]
          
    |psi|^2 = 0.148
==== e(  28) =     0.90826 eV ==== 
     psi = 0.021*[#  19]+0.020*[#  16]+0.019*[#   2]+0.017*[#   1]+0.003*[#  15]
          
    |psi|^2 = 0.084
==== e(  29) =     0.96211 eV ==== 
     psi = 0.059*[#  19]+0.015*[#  16]+0.012*[#   4]+0.011*[#   8]+0.007*[#  17]
          +0.005*[#   5]+0.005*[#   9]+0.004*[#  15]+0.001*[#   3]+0.001*[#   6]
          
    |psi|^2 = 0.125
==== e(  30) =     1.13666 eV ==== 
     psi = 0.026*[#  18]+0.005*[#   4]+0.005*[#  10]+0.005*[#   6]+0.005*[#   8]
          +0.001*[#   1]+0.001*[#  16]+0.001*[#  19]+0.001*[#   3]
    |psi|^2 = 0.056
==== e(  31) =     1.17651 eV ==== 
     psi = 0.011*[#  19]+0.010*[#  16]+0.008*[#  18]+0.004*[#  15]+0.001*[#   6]
          +0.002*[#   7]+0.001*[#  10]
    |psi|^2 = 0.043
==== e(  32) =     1.26307 eV ==== 
     psi = 0.033*[#  19]+0.008*[#  15]+0.006*[#  16]+0.003*[#   5]+0.002*[#   9]
          +0.001*[#   3]+0.002*[#   7]+0.001*[#   1]+0.001*[#  18]+0.001*[#   2]
          
    |psi|^2 = 0.062
==== e(  33) =     1.29119 eV ==== 
     psi = 0.014*[#  19]+0.004*[#  18]+0.003*[#   6]+0.002*[#   4]+0.002*[#  15]
          +0.002*[#  20]+0.001*[#   3]+0.001*[#  10]+0.001*[#  16]+0.001*[#   5]
          +0.001*[#   8]
    |psi|^2 = 0.035
==== e(  34) =     1.37696 eV ==== 
     psi = 0.007*[#   1]+0.006*[#  19]+0.006*[#   2]+0.002*[#  17]+0.002*[#  16]
          +0.001*[#   4]
    |psi|^2 = 0.028
==== e(  35) =     1.41577 eV ==== 
     psi = 0.018*[#  18]+0.012*[#  19]+0.005*[#  10]+0.004*[#  15]+0.003*[#   6]
          +0.002*[#   7]+0.002*[#  20]+0.002*[#   9]+0.002*[#  16]
    |psi|^2 = 0.052
==== e(  36) =     1.47224 eV ==== 
     psi = 0.010*[#   1]+0.008*[#  18]+0.008*[#   2]+0.006*[#  16]+0.006*[#  15]
          +0.005*[#  19]+0.003*[#  10]+0.002*[#   6]+0.001*[#  20]+0.001*[#   3]
          +0.001*[#  17]
    |psi|^2 = 0.053
==== e(  37) =     1.48991 eV ==== 
     psi = 0.011*[#  15]+0.009*[#  19]+0.004*[#  16]+0.004*[#   1]+0.003*[#   4]
          +0.003*[#   8]+0.002*[#   2]+0.002*[#  18]+0.001*[#   3]+0.001*[#   6]
          
    |psi|^2 = 0.044
==== e(  38) =     1.51737 eV ==== 
     psi = 0.011*[#  19]+0.007*[#  15]+0.002*[#   2]+0.002*[#  18]+0.002*[#  16]
          +0.002*[#   1]+0.001*[#   3]+0.001*[#   6]+0.001*[#   5]
    |psi|^2 = 0.033
==== e(  39) =     1.58410 eV ==== 
     psi = 0.006*[#  18]+0.002*[#   4]+0.002*[#  15]+0.002*[#  20]+0.001*[#   1]
          +0.001*[#   6]+0.001*[#   8]+0.001*[#  10]
    |psi|^2 = 0.017
==== e(  40) =     1.62241 eV ==== 
     psi = 0.008*[#  19]+0.005*[#  15]+0.004*[#  18]+0.002*[#   1]+0.002*[#   2]
          +0.001*[#  10]+0.001*[#   6]+0.001*[#   4]
    |psi|^2 = 0.030

 k =   0.4000000000 -0.4282105431 -0.3856128944
==== e(   1) =   -60.96846 eV ==== 
     psi = 0.971*[#  11]+0.007*[#   6]+0.006*[#  10]+0.003*[#   8]+0.003*[#   3]
          +0.003*[#   7]+0.003*[#   4]
    |psi|^2 = 1.000
==== e(   2) =   -37.56433 eV ==== 
     psi = 0.238*[#  13]+0.009*[#   3]+0.009*[#   7]+0.007*[#   6]+0.007*[#  10]
          +0.002*[#  14]
    |psi|^2 = 0.273
==== e(   3) =   -37.52831 eV ==== 
     psi = 0.933*[#  14]+0.726*[#  12]+0.018*[#   3]+0.018*[#   7]+0.007*[#   6]
          +0.006*[#  10]+0.001*[#   9]+0.001*[#   5]
    |psi|^2 = 1.711
==== e(   4) =   -37.39296 eV ==== 
     psi = 0.750*[#  13]+0.238*[#  12]+0.002*[#   1]+0.002*[#   5]+0.002*[#   9]
          +0.001*[#   2]
    |psi|^2 = 0.995
==== e(   5) =   -20.67183 eV ==== 
     psi = 0.428*[#   7]+0.422*[#   3]+0.087*[#  15]+0.030*[#  19]+0.015*[#  12]
          +0.007*[#  11]+0.004*[#  17]+0.003*[#  13]
    |psi|^2 = 0.999
==== e(   6) =   -20.33256 eV ==== 
     psi = 0.449*[#   3]+0.443*[#   7]+0.058*[#  18]+0.038*[#  14]+0.010*[#  20]
          +0.003*[#  12]
    |psi|^2 = 1.002
==== e(   7) =   -12.87395 eV ==== 
     psi = 0.484*[#   2]+0.451*[#   1]+0.020*[#  15]+0.013*[#  17]+0.008*[#  19]
          +0.002*[#  13]+0.001*[#  11]
    |psi|^2 = 0.982
==== e(   8) =    -7.51235 eV ==== 
     psi = 0.138*[#  19]+0.107*[#  16]+0.056*[#   5]+0.056*[#   9]+0.019*[#  10]
          +0.012*[#  17]+0.008*[#   6]+0.006*[#   3]+0.006*[#   7]+0.002*[#  18]
          +0.002*[#  11]
    |psi|^2 = 0.415
==== e(   9) =    -7.27483 eV ==== 
     psi = 0.318*[#   6]+0.311*[#  10]+0.257*[#  18]+0.039*[#  20]+0.017*[#   3]
          +0.017*[#   7]+0.011*[#   8]+0.007*[#  14]+0.004*[#   4]+0.003*[#   9]
          +0.002*[#   5]+0.001*[#  16]
    |psi|^2 = 0.988
==== e(  10) =    -7.12942 eV ==== 
     psi = 0.315*[#   9]+0.308*[#   5]+0.226*[#  20]+0.033*[#  18]+0.003*[#   8]
          +0.002*[#   4]
    |psi|^2 = 0.888
==== e(  11) =    -6.84157 eV ==== 
     psi = 0.342*[#   5]+0.334*[#   9]+0.086*[#  17]+0.070*[#  16]+0.056*[#   8]
          +0.053*[#   4]+0.017*[#  19]+0.005*[#   2]+0.004*[#   1]+0.003*[#  13]
          +0.001*[#  15]
    |psi|^2 = 0.973
==== e(  12) =    -6.50674 eV ==== 
     psi = 0.385*[#   6]+0.373*[#  10]+0.315*[#   8]+0.308*[#   4]+0.072*[#  17]
          +0.049*[#  19]+0.032*[#  16]+0.013*[#   3]+0.013*[#  15]+0.013*[#   7]
          +0.011*[#  11]+0.001*[#  13]+0.001*[#   9]
    |psi|^2 = 1.586
==== e(  13) =    -5.47959 eV ==== 
     psi = 0.406*[#   4]+0.392*[#   8]+0.070*[#   5]+0.069*[#   9]+0.027*[#  10]
          +0.012*[#   6]+0.009*[#  14]+0.001*[#   3]+0.001*[#   7]
    |psi|^2 = 0.987
==== e(  14) =    -2.97387 eV ==== 
     psi = 0.380*[#  15]+0.249*[#  19]+0.071*[#  16]+0.070*[#   4]+0.069*[#   8]
          +0.047*[#  17]+0.022*[#   9]+0.021*[#   5]+0.010*[#   2]+0.007*[#   3]
          +0.007*[#   7]+0.003*[#   1]+0.001*[#  13]
    |psi|^2 = 0.959
==== e(  15) =    -2.90424 eV ==== 
     psi = 0.315*[#  16]+0.077*[#   1]+0.075*[#   2]+0.058*[#  15]+0.051*[#  10]
          +0.047*[#   6]+0.042*[#  19]+0.041*[#  17]+0.011*[#   9]+0.009*[#   5]
          +0.003*[#   3]+0.003*[#   7]+0.002*[#  11]+0.001*[#  18]
    |psi|^2 = 0.737
==== e(  16) =    -1.95155 eV ==== 
     psi = 0.639*[#  17]+0.095*[#  15]+0.038*[#   5]+0.035*[#   1]+0.035*[#   9]
          +0.022*[#   8]+0.021*[#   4]+0.019*[#  16]+0.018*[#   6]+0.018*[#  10]
          +0.017*[#  19]+0.005*[#   2]+0.001*[#  12]+0.001*[#  20]
    |psi|^2 = 0.965
==== e(  17) =    -0.95301 eV ==== 
     psi = 0.507*[#  20]+0.149*[#  18]+0.106*[#   9]+0.103*[#   5]+0.019*[#   4]
          +0.017*[#   8]+0.003*[#   6]+0.003*[#  10]
    |psi|^2 = 0.910
==== e(  18) =    -0.63385 eV ==== 
     psi = 0.108*[#  20]+0.106*[#   8]+0.103*[#   4]+0.052*[#  18]+0.051*[#   6]
          +0.044*[#  10]+0.006*[#   5]+0.005*[#   9]+0.002*[#   3]+0.002*[#  14]
          +0.002*[#   7]
    |psi|^2 = 0.486
==== e(  19) =    -0.45390 eV ==== 
     psi = 0.072*[#  16]+0.019*[#   2]+0.013*[#  17]+0.010*[#  19]+0.009*[#  10]
          +0.007*[#   1]+0.003*[#   6]+0.003*[#  18]+0.003*[#   8]+0.003*[#  15]
          +0.003*[#  20]+0.001*[#   9]+0.001*[#   5]
    |psi|^2 = 0.149
==== e(  20) =    -0.31399 eV ==== 
     psi = 0.046*[#  16]+0.022*[#   2]+0.016*[#   1]+0.014*[#  19]+0.013*[#  15]
          +0.006*[#   4]+0.005*[#   8]+0.003*[#   6]+0.001*[#  17]+0.001*[#  20]
          +0.001*[#   5]+0.001*[#  10]+0.001*[#  18]
    |psi|^2 = 0.132
==== e(  21) =    -0.13714 eV ==== 
     psi = 0.007*[#   1]+0.007*[#   2]+0.006*[#  15]+0.005*[#  18]+0.005*[#  19]
          +0.003*[#  16]+0.003*[#  10]+0.003*[#  20]+0.002*[#   6]+0.001*[#   5]
          +0.001*[#   7]+0.001*[#   8]
    |psi|^2 = 0.047
==== e(  22) =    -0.10753 eV ==== 
     psi = 0.012*[#  19]+0.011*[#   1]+0.010*[#  18]+0.009*[#   2]+0.006*[#   6]
          +0.004*[#  20]+0.003*[#  10]+0.002*[#  16]+0.001*[#   3]+0.001*[#   4]
          
    |psi|^2 = 0.062
==== e(  23) =     0.01293 eV ==== 
     psi = 0.050*[#   1]+0.040*[#   2]+0.026*[#  16]+0.023*[#  18]+0.021*[#  19]
          +0.012*[#   6]+0.011*[#  10]+0.009*[#  15]+0.008*[#  20]+0.002*[#   3]
          +0.002*[#   7]+0.001*[#   4]+0.001*[#   9]
    |psi|^2 = 0.208
==== e(  24) =     0.06150 eV ==== 
     psi = 0.018*[#  19]+0.014*[#   1]+0.012*[#  18]+0.009*[#   2]+0.005*[#  10]
          +0.003*[#   6]+0.003*[#  15]+0.003*[#  20]+0.002*[#  17]+0.001*[#   7]
          +0.001*[#   9]
    |psi|^2 = 0.076
==== e(  25) =     0.12458 eV ==== 
     psi = 0.033*[#  18]+0.013*[#  19]+0.012*[#  10]+0.011*[#   6]+0.007*[#  20]
          +0.004*[#  16]+0.003*[#   4]+0.002*[#   8]+0.002*[#   3]+0.001*[#   2]
          +0.001*[#   5]+0.001*[#   9]+0.001*[#   7]
    |psi|^2 = 0.093
==== e(  26) =     0.24376 eV ==== 
     psi = 0.056*[#  16]+0.049*[#   1]+0.047*[#   2]+0.030*[#  18]+0.012*[#  10]
          +0.009*[#   6]+0.007*[#  20]+0.001*[#   4]+0.001*[#   8]+0.001*[#  19]
          +0.001*[#   3]+0.001*[#   7]
    |psi|^2 = 0.218
==== e(  27) =     0.33894 eV ==== 
     psi = 0.048*[#  16]+0.022*[#   2]+0.021*[#  19]+0.018*[#   1]+0.006*[#   4]
          +0.006*[#   8]+0.006*[#  18]+0.002*[#  15]+0.002*[#   5]+0.002*[#  10]
          +0.002*[#   9]+0.001*[#   6]+0.001*[#  17]
    |psi|^2 = 0.140
==== e(  28) =     0.83317 eV ==== 
     psi = 0.036*[#  19]+0.020*[#  16]+0.015*[#   2]+0.014*[#   1]+0.003*[#  17]
          +0.002*[#   5]+0.002*[#   9]+0.001*[#  15]
    |psi|^2 = 0.096
==== e(  29) =     1.07637 eV ==== 
     psi = 0.024*[#  19]+0.013*[#  18]+0.010*[#   8]+0.010*[#  15]+0.009*[#  16]
          +0.006*[#   4]+0.003*[#   2]+0.003*[#   7]+0.003*[#  17]+0.003*[#  10]
          +0.002*[#   6]+0.002*[#   1]+0.001*[#   9]
    |psi|^2 = 0.091
==== e(  30) =     1.13271 eV ==== 
     psi = 0.017*[#  19]+0.007*[#  16]+0.002*[#   5]+0.002*[#   9]+0.002*[#  20]
          +0.002*[#  17]+0.002*[#   2]+0.001*[#   1]+0.001*[#   8]
    |psi|^2 = 0.039
==== e(  31) =     1.14052 eV ==== 
     psi = 0.038*[#  19]+0.018*[#  18]+0.005*[#   6]+0.005*[#  16]+0.004*[#   8]
          +0.004*[#  10]+0.003*[#   5]+0.003*[#  15]+0.003*[#   4]+0.002*[#   3]
          +0.002*[#   9]+0.002*[#  17]
    |psi|^2 = 0.094
==== e(  32) =     1.25143 eV ==== 
     psi = 0.013*[#  19]+0.007*[#  16]+0.003*[#  15]+0.003*[#  18]+0.002*[#   4]
          +0.002*[#   8]+0.001*[#   1]+0.001*[#   5]+0.001*[#   9]+0.001*[#   3]
          
    |psi|^2 = 0.040
==== e(  33) =     1.30307 eV ==== 
     psi = 0.009*[#  18]+0.003*[#   6]+0.002*[#  10]+0.001*[#   1]+0.001*[#  16]
          +0.001*[#   2]+0.001*[#   8]
    |psi|^2 = 0.021
==== e(  34) =     1.36411 eV ==== 
     psi = 0.010*[#  19]+0.006*[#  15]+0.005*[#  18]+0.004*[#   1]+0.003*[#   2]
          +0.002*[#  10]+0.001*[#   7]
    |psi|^2 = 0.036
==== e(  35) =     1.41030 eV ==== 
     psi = 0.012*[#  18]+0.003*[#  10]+0.003*[#   6]+0.002*[#  20]+0.002*[#   1]
          +0.002*[#   2]+0.002*[#   8]
    |psi|^2 = 0.029
==== e(  36) =     1.46252 eV ==== 
     psi = 0.007*[#  19]+0.004*[#  15]
    |psi|^2 = 0.016
==== e(  37) =     1.49513 eV ==== 
     psi = 0.006*[#  15]+0.006*[#  19]+0.005*[#  18]+0.004*[#  16]+0.003*[#   4]
          +0.002*[#   6]+0.001*[#   3]+0.001*[#   8]+0.001*[#  10]
    |psi|^2 = 0.033
==== e(  38) =     1.58767 eV ==== 
     psi = 0.011*[#  19]+0.008*[#  18]+0.006*[#  15]+0.004*[#  16]+0.004*[#   1]
          +0.003*[#   2]+0.002*[#   6]+0.001*[#   3]+0.001*[#  10]+0.001*[#  17]
          
    |psi|^2 = 0.044
==== e(  39) =     1.60177 eV ==== 
     psi = 0.006*[#  19]+0.006*[#  18]+0.004*[#   4]+0.003*[#   8]+0.003*[#   1]
          +0.002*[#   6]+0.002*[#  16]+0.002*[#   2]+0.001*[#  10]
    |psi|^2 = 0.034
==== e(  40) =     1.65657 eV ==== 
     psi = 0.016*[#  19]+0.013*[#  15]+0.009*[#  18]+0.003*[#   6]+0.002*[#   2]
          +0.002*[#  16]+0.002*[#   7]+0.002*[#   3]+0.002*[#   1]+0.001*[#  10]
          +0.001*[#  20]
    |psi|^2 = 0.055

Lowdin Charges: 

     Atom #   1: total charge =   0.9159, s =  0.9159, p =  0.0000, d =  0.0000, 
                 spin up      =   0.4580, s =  0.4580, 
                 spin up      =   0.4580, p =  0.0000, pz=  0.0000, px=  0.0000, py=  0.0000, 
                 spin up      =   0.4580, d =  0.0000, dz2=  0.0000, dxz=  0.0000, dyz=  0.0000, dx2-y2=  0.0000, dxy=  0.0000, 
                 spin down    =   0.4580, s =  0.4580, 
                 spin down    =   0.4580, p =  0.0000, pz=  0.0000, px=  0.0000, py=  0.0000, 
                 spin down    =   0.4580, d =  0.0000, dz2=  0.0000, dxz=  0.0000, dyz=  0.0000, dx2-y2=  0.0000, dxy=  0.0000, 
                 polarization =   0.0000, s =  0.0000, p =  0.0000, d =  0.0000, 
     Atom #   2: total charge =   0.9842, s =  0.9842, p =  0.0000, d =  0.0000, 
                 spin up      =   0.4921, s =  0.4921, 
                 spin up      =   0.4921, p =  0.0000, pz=  0.0000, px=  0.0000, py=  0.0000, 
                 spin up      =   0.4921, d =  0.0000, dz2=  0.0000, dxz=  0.0000, dyz=  0.0000, dx2-y2=  0.0000, dxy=  0.0000, 
                 spin down    =   0.4921, s =  0.4921, 
                 spin down    =   0.4921, p =  0.0000, pz=  0.0000, px=  0.0000, py=  0.0000, 
                 spin down    =   0.4921, d =  0.0000, dz2=  0.0000, dxz=  0.0000, dyz=  0.0000, dx2-y2=  0.0000, dxy=  0.0000, 
                 polarization =   0.0000, s =  0.0000, p =  0.0000, d =  0.0000, 
     Atom #   3: total charge =   6.4884, s =  1.8768, p =  4.6116, d =  0.0000, 
                 spin up      =   3.2441, s =  0.9384, 
                 spin up      =   3.2441, p =  2.3057, pz=  0.7767, px=  0.7820, py=  0.7469, 
                 spin up      =   3.2441, d =  0.0000, dz2=  0.0000, dxz=  0.0000, dyz=  0.0000, dx2-y2=  0.0000, dxy=  0.0000, 
                 spin down    =   3.2443, s =  0.9384, 
                 spin down    =   3.2443, p =  2.3059, pz=  0.7769, px=  0.7821, py=  0.7469, 
                 spin down    =   3.2443, d =  0.0000, dz2=  0.0000, dxz=  0.0000, dyz=  0.0000, dx2-y2=  0.0000, dxy=  0.0000, 
                 polarization =  -0.0003, s = -0.0000, p = -0.0002, d =  0.0000, 
     Atom #   4: total charge =   6.5068, s =  1.8767, p =  4.6301, d =  0.0000, 
                 spin up      =   3.2533, s =  0.9383, 
                 spin up      =   3.2533, p =  2.3150, pz=  0.7823, px=  0.7813, py=  0.7514, 
                 spin up      =   3.2533, d =  0.0000, dz2=  0.0000, dxz=  0.0000, dyz=  0.0000, dx2-y2=  0.0000, dxy=  0.0000, 
                 spin down    =   3.2535, s =  0.9383, 
                 spin down    =   3.2535, p =  2.3151, pz=  0.7823, px=  0.7814, py=  0.7514, 
                 spin down    =   3.2535, d =  0.0000, dz2=  0.0000, dxz=  0.0000, dyz=  0.0000, dx2-y2=  0.0000, dxy=  0.0000, 
                 polarization =  -0.0001, s = -0.0000, p = -0.0001, d =  0.0000, 
     Atom #   5: total charge =  10.7009, s =  2.2268, p =  5.9356, d =  2.5385, 
                 spin up      =   5.3505, s =  1.1134, 
                 spin up      =   5.3505, p =  2.9678, pz=  0.9818, px=  0.9969, py=  0.9891, 
                 spin up      =   5.3505, d =  1.2693, dz2=  0.2122, dxz=  0.1879, dyz=  0.3508, dx2-y2=  0.2430, dxy=  0.2755, 
                 spin down    =   5.3504, s =  1.1134, 
                 spin down    =   5.3504, p =  2.9678, pz=  0.9818, px=  0.9969, py=  0.9891, 
                 spin down    =   5.3504, d =  1.2691, dz2=  0.2121, dxz=  0.1879, dyz=  0.3507, dx2-y2=  0.2431, dxy=  0.2754, 
                 polarization =   0.0002, s =  0.0000, p = -0.0000, d =  0.0002, 
     Spilling Parameter:   0.0155

     PROJWFC      :     23.57s CPU     28.64s WALL


   This run was terminated on:  17:53:53   5Feb2024            

=------------------------------------------------------------------------------=
   JOB DONE.
=------------------------------------------------------------------------------=
