
     Program PWSCF v.6.7MaX starts on  5Feb2024 at  0: 2:47 

     This program is part of the open-source Quantum ESPRESSO suite
     for quantum simulation of materials; please cite
         "P. Giannozzi et al., J. Phys.:Condens. Matter 21 395502 (2009);
         "P. Giannozzi et al., J. Phys.:Condens. Matter 29 465901 (2017);
          URL http://www.quantum-espresso.org", 
     in publications or presentations arising from this work. More details at
     http://www.quantum-espresso.org/quote

     Parallel version (MPI), running on     4 processors

     MPI processes distributed on     1 nodes
     R & G space division:  proc/nbgrp/npool/nimage =       4
     Reading input from espresso.nscf.in

     Current dimensions of program PWSCF are:
     Max number of different atomic species (ntypx) = 10
     Max number of k-points (npk) =  40000
     Max angular momentum in pseudopotentials (lmaxx) =  3
     file H.pbe-rrkjus.UPF: wavefunction(s)  1S renormalized
     file O.pbe-rrkjus.UPF: wavefunction(s)  2S renormalized

     Subspace diagonalization in iterative solution of the eigenvalue problem:
     a serial algorithm will be used


     Parallelization info
     --------------------
     sticks:   dense  smooth     PW     G-vecs:    dense   smooth      PW
     Min        2692    1199    319               225848    66937    9251
     Max        2693    1200    320               225853    66940    9254
     Sum       10769    4799   1279               903397   267757   37009



     bravais-lattice index     =           14
     lattice parameter (alat)  =      25.3856  a.u.
     unit-cell volume          =   15851.6772 (a.u.)^3
     number of atoms/cell      =            5
     number of atomic types    =            3
     number of electrons       =        26.00
     number of Kohn-Sham states=           40
     kinetic-energy cutoff     =      25.0000  Ry
     charge density cutoff     =     225.0000  Ry
     scf convergence threshold =      1.0E-06
     mixing beta               =       0.4000
     number of iterations used =            8  plain     mixing
     Exchange-correlation= SLA  PW   PBE  PBE
                           (   1   4   3   4   0   0   0)

     celldm(1)=  25.385636  celldm(2)=   0.934120  celldm(3)=   1.037310
     celldm(4)=   0.000000  celldm(5)=   0.000000  celldm(6)=   0.000000

     crystal axes: (cart. coord. in units of alat)
               a(1) = (   1.000000   0.000000   0.000000 )  
               a(2) = (   0.000000   0.934120   0.000000 )  
               a(3) = (   0.000000   0.000000   1.037310 )  

     reciprocal axes: (cart. coord. in units 2 pi/alat)
               b(1) = (  1.000000  0.000000  0.000000 )  
               b(2) = (  0.000000  1.070526  0.000000 )  
               b(3) = (  0.000000  0.000000  0.964032 )  


     PseudoPot. # 1 for H  read from file:
     ./H.pbe-rrkjus.UPF
     MD5 check sum: d9bcf6f4e88d09736c6b7f7b23490d32
     Pseudo is Ultrasoft, Zval =  1.0
     Generated by new atomic code, or converted to UPF format
     Using radial grid of 1061 points,  2 beta functions with: 
                l(1) =   0
                l(2) =   0
     Q(r) pseudized with 0 coefficients 


     PseudoPot. # 2 for O  read from file:
     ./O.pbe-rrkjus.UPF
     MD5 check sum: a4b6f5047f549466a921003d899c5518
     Pseudo is Ultrasoft, Zval =  6.0
     Generated by new atomic code, or converted to UPF format
     Using radial grid of 1269 points,  4 beta functions with: 
                l(1) =   0
                l(2) =   0
                l(3) =   1
                l(4) =   1
     Q(r) pseudized with 0 coefficients 


     PseudoPot. # 3 for Ti read from file:
     ./Ti.pbe-sp-van_ak.UPF
     MD5 check sum: 2e7572f3128e7cf134dafc4105d62c0f
     Pseudo is Ultrasoft, Zval = 12.0
     Generated by new atomic code, or converted to UPF format
     Using radial grid of  851 points,  6 beta functions with: 
                l(1) =   0
                l(2) =   0
                l(3) =   1
                l(4) =   1
                l(5) =   2
                l(6) =   2
     Q(r) pseudized with  8 coefficients,  rinner =    1.000   1.000   1.000
                                                       1.000   1.000

     atomic species   valence    mass     pseudopotential
        H              1.00     1.00794     H ( 1.00)
        O              6.00    15.99940     O ( 1.00)
        Ti            12.00    47.86700     Ti( 1.00)

     Starting magnetic structure 
     atomic species   magnetization
        H            0.000
        O            0.000
        Ti           0.200

     No symmetry found



   Cartesian axes

     site n.     atom                  positions (alat units)
         1           H   tau(   1) = (   0.2419143   0.3150407   0.3834953  )
         2           H   tau(   2) = (   0.2705115   0.3149127   0.4330511  )
         3           O   tau(   3) = (   0.3614166   0.4179788   0.2585824  )
         4           O   tau(   4) = (   0.3592850   0.2172332   0.2501877  )
         5           Ti  tau(   5) = (   0.3874704   0.3145768   0.3200417  )

     number of k points=    63  Gaussian smearing, width (Ry)=  0.0100
                       cart. coord. in units 2pi/alat
        k(    1) = (   0.0000000   0.0000000   0.0000000), wk =   0.0080000
        k(    2) = (   0.0000000   0.0000000   0.1928064), wk =   0.0160000
        k(    3) = (   0.0000000   0.0000000   0.3856129), wk =   0.0160000
        k(    4) = (   0.0000000   0.2141053   0.0000000), wk =   0.0160000
        k(    5) = (   0.0000000   0.2141053   0.1928064), wk =   0.0160000
        k(    6) = (   0.0000000   0.2141053   0.3856129), wk =   0.0160000
        k(    7) = (   0.0000000   0.4282105   0.0000000), wk =   0.0160000
        k(    8) = (   0.0000000   0.4282105   0.1928064), wk =   0.0160000
        k(    9) = (   0.0000000   0.4282105   0.3856129), wk =   0.0160000
        k(   10) = (   0.2000000   0.0000000   0.0000000), wk =   0.0160000
        k(   11) = (   0.2000000   0.0000000   0.1928064), wk =   0.0160000
        k(   12) = (   0.2000000   0.0000000   0.3856129), wk =   0.0160000
        k(   13) = (   0.2000000   0.2141053   0.0000000), wk =   0.0160000
        k(   14) = (   0.2000000   0.2141053   0.1928064), wk =   0.0160000
        k(   15) = (   0.2000000   0.2141053   0.3856129), wk =   0.0160000
        k(   16) = (   0.2000000   0.4282105   0.0000000), wk =   0.0160000
        k(   17) = (   0.2000000   0.4282105   0.1928064), wk =   0.0160000
        k(   18) = (   0.2000000   0.4282105   0.3856129), wk =   0.0160000
        k(   19) = (   0.4000000   0.0000000   0.0000000), wk =   0.0160000
        k(   20) = (   0.4000000   0.0000000   0.1928064), wk =   0.0160000
        k(   21) = (   0.4000000   0.0000000   0.3856129), wk =   0.0160000
        k(   22) = (   0.4000000   0.2141053   0.0000000), wk =   0.0160000
        k(   23) = (   0.4000000   0.2141053   0.1928064), wk =   0.0160000
        k(   24) = (   0.4000000   0.2141053   0.3856129), wk =   0.0160000
        k(   25) = (   0.4000000   0.4282105   0.0000000), wk =   0.0160000
        k(   26) = (   0.4000000   0.4282105   0.1928064), wk =   0.0160000
        k(   27) = (   0.4000000   0.4282105   0.3856129), wk =   0.0160000
        k(   28) = (   0.0000000  -0.2141053   0.1928064), wk =   0.0160000
        k(   29) = (   0.0000000  -0.2141053   0.3856129), wk =   0.0160000
        k(   30) = (   0.0000000  -0.4282105   0.1928064), wk =   0.0160000
        k(   31) = (   0.0000000  -0.4282105   0.3856129), wk =   0.0160000
        k(   32) = (  -0.2000000   0.0000000   0.1928064), wk =   0.0160000
        k(   33) = (  -0.2000000   0.0000000   0.3856129), wk =   0.0160000
        k(   34) = (  -0.2000000   0.2141053   0.0000000), wk =   0.0160000
        k(   35) = (  -0.2000000  -0.2141053   0.1928064), wk =   0.0160000
        k(   36) = (  -0.2000000   0.2141053  -0.1928064), wk =   0.0160000
        k(   37) = (   0.2000000  -0.2141053  -0.1928064), wk =   0.0160000
        k(   38) = (  -0.2000000  -0.2141053   0.3856129), wk =   0.0160000
        k(   39) = (  -0.2000000   0.2141053  -0.3856129), wk =   0.0160000
        k(   40) = (   0.2000000  -0.2141053  -0.3856129), wk =   0.0160000
        k(   41) = (  -0.2000000   0.4282105   0.0000000), wk =   0.0160000
        k(   42) = (  -0.2000000  -0.4282105   0.1928064), wk =   0.0160000
        k(   43) = (  -0.2000000   0.4282105  -0.1928064), wk =   0.0160000
        k(   44) = (   0.2000000  -0.4282105  -0.1928064), wk =   0.0160000
        k(   45) = (  -0.2000000  -0.4282105   0.3856129), wk =   0.0160000
        k(   46) = (  -0.2000000   0.4282105  -0.3856129), wk =   0.0160000
        k(   47) = (   0.2000000  -0.4282105  -0.3856129), wk =   0.0160000
        k(   48) = (  -0.4000000   0.0000000   0.1928064), wk =   0.0160000
        k(   49) = (  -0.4000000   0.0000000   0.3856129), wk =   0.0160000
        k(   50) = (  -0.4000000   0.2141053   0.0000000), wk =   0.0160000
        k(   51) = (  -0.4000000  -0.2141053   0.1928064), wk =   0.0160000
        k(   52) = (  -0.4000000   0.2141053  -0.1928064), wk =   0.0160000
        k(   53) = (   0.4000000  -0.2141053  -0.1928064), wk =   0.0160000
        k(   54) = (  -0.4000000  -0.2141053   0.3856129), wk =   0.0160000
        k(   55) = (  -0.4000000   0.2141053  -0.3856129), wk =   0.0160000
        k(   56) = (   0.4000000  -0.2141053  -0.3856129), wk =   0.0160000
        k(   57) = (  -0.4000000   0.4282105   0.0000000), wk =   0.0160000
        k(   58) = (  -0.4000000  -0.4282105   0.1928064), wk =   0.0160000
        k(   59) = (  -0.4000000   0.4282105  -0.1928064), wk =   0.0160000
        k(   60) = (   0.4000000  -0.4282105  -0.1928064), wk =   0.0160000
        k(   61) = (  -0.4000000  -0.4282105   0.3856129), wk =   0.0160000
        k(   62) = (  -0.4000000   0.4282105  -0.3856129), wk =   0.0160000
        k(   63) = (   0.4000000  -0.4282105  -0.3856129), wk =   0.0160000

     Dense  grid:   903397 G-vectors     FFT dimensions: ( 125, 120, 125)

     Smooth grid:   267757 G-vectors     FFT dimensions: (  81,  75,  90)

     Estimated max dynamical RAM per process >       1.50 GB

     Estimated total dynamical RAM >       6.00 GB
     Generating pointlists ...
     new r_m :   0.0236 (alat units)  0.5991 (a.u.) for type    1
     new r_m :   0.0508 (alat units)  1.2888 (a.u.) for type    2
     new r_m :   0.0508 (alat units)  1.2888 (a.u.) for type    3

     Initial potential from superposition of free atoms

     starting charge   24.80754, renormalised to   26.00000

     negative rho (up, down):  3.958E-02 2.619E-02
     Starting wfcs are   20 randomized atomic wfcs +   20 random wfcs

     total cpu time spent up to now is      109.4 secs

     Self-consistent Calculation

     iteration #  1     ecut=    25.00 Ry     beta= 0.40
     Davidson diagonalization with overlap
     ethr =  1.00E-02,  avg # of iterations =  6.9

     negative rho (up, down):  3.625E-02 2.795E-02

     total cpu time spent up to now is      800.3 secs

     total energy              =    -182.73414103 Ry
     estimated scf accuracy    <       0.98195750 Ry

     total magnetization       =     0.00 Bohr mag/cell
     absolute magnetization    =     0.72 Bohr mag/cell

     iteration #  2     ecut=    25.00 Ry     beta= 0.40
     Davidson diagonalization with overlap
     ethr =  3.78E-03,  avg # of iterations =  1.0

     negative rho (up, down):  3.470E-02 2.945E-02

     total cpu time spent up to now is     1048.8 secs

     total energy              =    -182.66760199 Ry
     estimated scf accuracy    <       0.33629566 Ry

     total magnetization       =     0.00 Bohr mag/cell
     absolute magnetization    =     0.81 Bohr mag/cell

     iteration #  3     ecut=    25.00 Ry     beta= 0.40
     Davidson diagonalization with overlap
     ethr =  1.29E-03,  avg # of iterations =  3.9

     negative rho (up, down):  3.634E-02 3.243E-02

     total cpu time spent up to now is     1343.8 secs

     total energy              =    -182.69130862 Ry
     estimated scf accuracy    <       0.49164715 Ry

     total magnetization       =    -0.00 Bohr mag/cell
     absolute magnetization    =     0.33 Bohr mag/cell

     iteration #  4     ecut=    25.00 Ry     beta= 0.40
     Davidson diagonalization with overlap
     ethr =  1.29E-03,  avg # of iterations =  1.3

     negative rho (up, down):  3.758E-02 3.510E-02

     total cpu time spent up to now is     1624.6 secs

     total energy              =    -182.73590004 Ry
     estimated scf accuracy    <       0.01542893 Ry

     total magnetization       =    -0.00 Bohr mag/cell
     absolute magnetization    =     0.37 Bohr mag/cell

     iteration #  5     ecut=    25.00 Ry     beta= 0.40
     Davidson diagonalization with overlap
     ethr =  5.93E-05,  avg # of iterations =  7.4

     negative rho (up, down):  3.947E-02 3.803E-02

     total cpu time spent up to now is     2193.9 secs

     total energy              =    -182.74117696 Ry
     estimated scf accuracy    <       0.00588219 Ry

     total magnetization       =     0.00 Bohr mag/cell
     absolute magnetization    =     0.29 Bohr mag/cell

     iteration #  6     ecut=    25.00 Ry     beta= 0.40
     Davidson diagonalization with overlap
     ethr =  2.26E-05,  avg # of iterations =  2.0

     negative rho (up, down):  4.053E-02 3.970E-02

     total cpu time spent up to now is     2471.8 secs

     total energy              =    -182.74210007 Ry
     estimated scf accuracy    <       0.00159505 Ry

     total magnetization       =     0.00 Bohr mag/cell
     absolute magnetization    =     0.20 Bohr mag/cell

     iteration #  7     ecut=    25.00 Ry     beta= 0.40
     Davidson diagonalization with overlap
     c_bands:  1 eigenvalues not converged
     ethr =  6.13E-06,  avg # of iterations =  4.9

     negative rho (up, down):  4.159E-02 4.117E-02

     total cpu time spent up to now is     2817.4 secs

     total energy              =    -182.74260823 Ry
     estimated scf accuracy    <       0.00046940 Ry

     total magnetization       =     0.00 Bohr mag/cell
     absolute magnetization    =     0.15 Bohr mag/cell

     iteration #  8     ecut=    25.00 Ry     beta= 0.40
     Davidson diagonalization with overlap
     ethr =  1.81E-06,  avg # of iterations =  5.4

     negative rho (up, down):  4.135E-02 4.112E-02

     total cpu time spent up to now is     3171.7 secs

     total energy              =    -182.74280085 Ry
     estimated scf accuracy    <       0.00009713 Ry

     total magnetization       =     0.00 Bohr mag/cell
     absolute magnetization    =     0.08 Bohr mag/cell

     iteration #  9     ecut=    25.00 Ry     beta= 0.40
     Davidson diagonalization with overlap
     ethr =  3.74E-07,  avg # of iterations =  2.0

     negative rho (up, down):  4.090E-02 4.076E-02

     total cpu time spent up to now is     3481.9 secs

     total energy              =    -182.74285587 Ry
     estimated scf accuracy    <       0.00007035 Ry

     total magnetization       =    -0.00 Bohr mag/cell
     absolute magnetization    =     0.04 Bohr mag/cell

     iteration # 10     ecut=    25.00 Ry     beta= 0.40
     Davidson diagonalization with overlap
     ethr =  2.71E-07,  avg # of iterations =  2.0

     negative rho (up, down):  4.081E-02 4.071E-02

     total cpu time spent up to now is     3773.1 secs

     total energy              =    -182.74287976 Ry
     estimated scf accuracy    <       0.00001019 Ry

     total magnetization       =     0.00 Bohr mag/cell
     absolute magnetization    =     0.01 Bohr mag/cell

     iteration # 11     ecut=    25.00 Ry     beta= 0.40
     Davidson diagonalization with overlap
     ethr =  3.92E-08,  avg # of iterations =  2.5

     negative rho (up, down):  4.076E-02 4.070E-02

     total cpu time spent up to now is    60433.8 secs

     total energy              =    -182.74288782 Ry
     estimated scf accuracy    <       0.00001310 Ry

     total magnetization       =     0.00 Bohr mag/cell
     absolute magnetization    =     0.00 Bohr mag/cell

     iteration # 12     ecut=    25.00 Ry     beta= 0.40
     Davidson diagonalization with overlap
     ethr =  3.92E-08,  avg # of iterations =  1.5

     negative rho (up, down):  4.073E-02 4.073E-02

     Magnetic moment per site:
     atom:    1    charge:    0.2089    magn:   -0.0000    constr:    0.0000
     atom:    2    charge:    0.2156    magn:    0.0000    constr:    0.0000
     atom:    3    charge:    4.5287    magn:   -0.0002    constr:    0.0000
     atom:    4    charge:    4.5296    magn:   -0.0002    constr:    0.0000
     atom:    5    charge:    7.6676    magn:    0.0000    constr:    0.0000

     total cpu time spent up to now is    60702.1 secs

     End of self-consistent calculation

     Number of k-points >= 100: set verbosity='high' to print the bands.

     the Fermi energy is    -3.8143 ev

!    total energy              =    -182.74288917 Ry
     estimated scf accuracy    <       0.00000059 Ry
     smearing contrib. (-TS)   =      -0.00000000 Ry
     internal energy E=F+TS    =    -182.74288917 Ry

     The total energy is F=E-TS. E is the sum of the following terms:
     one-electron contribution =    -411.61301254 Ry
     hartree contribution      =     205.44912214 Ry
     xc contribution           =     -29.79194624 Ry
     ewald contribution        =      53.21294748 Ry

     total magnetization       =    -0.00 Bohr mag/cell
     absolute magnetization    =     0.00 Bohr mag/cell

     convergence has been achieved in  12 iterations

     Writing output data file ./pwscf.save/

     init_run     :    102.05s CPU    108.90s WALL (       1 calls)
     electrons    :   3932.94s CPU  60592.86s WALL (       1 calls)

     Called by init_run:
     wfcinit      :     90.27s CPU     96.07s WALL (       1 calls)
     potinit      :      6.24s CPU      6.54s WALL (       1 calls)
     hinit0       :      3.21s CPU      3.32s WALL (       1 calls)

     Called by electrons:
     c_bands      :   3428.95s CPU  60039.22s WALL (      12 calls)
     sum_band     :    466.67s CPU    507.91s WALL (      12 calls)
     v_of_rho     :     13.83s CPU     15.24s WALL (      13 calls)
     newd         :     22.36s CPU     29.79s WALL (      13 calls)
     mix_rho      :      2.45s CPU      2.57s WALL (      12 calls)

     Called by c_bands:
     init_us_2    :     15.93s CPU     16.81s WALL (    3150 calls)
     cegterg      :   3387.76s CPU  59995.01s WALL (    1512 calls)

     Called by *egterg:
     cdiaghg      :     56.09s CPU     59.13s WALL (    6650 calls)
     h_psi        :   1944.75s CPU  58476.21s WALL (    6776 calls)
     s_psi        :    176.44s CPU    185.57s WALL (    6776 calls)
     g_psi        :      4.87s CPU      5.11s WALL (    5138 calls)

     Called by h_psi:
     h_psi:calbec :    195.78s CPU    207.46s WALL (    6776 calls)
     vloc_psi     :   1562.81s CPU  58071.32s WALL (    6776 calls)
     add_vuspsi   :    177.10s CPU    186.51s WALL (    6776 calls)

     General routines
     calbec       :    271.92s CPU    287.57s WALL (    8288 calls)
     fft          :     11.91s CPU     12.95s WALL (     318 calls)
     ffts         :      0.48s CPU      0.52s WALL (      50 calls)
     fftw         :   1600.15s CPU  58116.20s WALL (  374760 calls)
     interpolate  :      1.19s CPU      1.31s WALL (      26 calls)

     Parallel routines
     fft_scatt_xy :    293.38s CPU    316.56s WALL (  375128 calls)
     fft_scatt_yz :    401.10s CPU    466.84s WALL (  375128 calls)

     PWSCF        :      1h 7m CPU     16h51m WALL


   This run was terminated on:  16:54:34   5Feb2024            

=------------------------------------------------------------------------------=
   JOB DONE.
=------------------------------------------------------------------------------=
