
     Program PWSCF v.6.7MaX starts on  4Feb2024 at 23:11:42 

     This program is part of the open-source Quantum ESPRESSO suite
     for quantum simulation of materials; please cite
         "P. Giannozzi et al., J. Phys.:Condens. Matter 21 395502 (2009);
         "P. Giannozzi et al., J. Phys.:Condens. Matter 29 465901 (2017);
          URL http://www.quantum-espresso.org", 
     in publications or presentations arising from this work. More details at
     http://www.quantum-espresso.org/quote

     Parallel version (MPI), running on     4 processors

     MPI processes distributed on     1 nodes
     R & G space division:  proc/nbgrp/npool/nimage =       4
     Reading input from espresso.scf.in

     Current dimensions of program PWSCF are:
     Max number of different atomic species (ntypx) = 10
     Max number of k-points (npk) =  40000
     Max angular momentum in pseudopotentials (lmaxx) =  3
     file H.pbe-rrkjus.UPF: wavefunction(s)  1S renormalized
     file O.pbe-rrkjus.UPF: wavefunction(s)  2S renormalized

     Subspace diagonalization in iterative solution of the eigenvalue problem:
     a serial algorithm will be used


     Parallelization info
     --------------------
     sticks:   dense  smooth     PW     G-vecs:    dense   smooth      PW
     Min        2692    1199    325               225848    66937    9513
     Max        2693    1200    326               225853    66940    9516
     Sum       10769    4799   1301               903397   267757   38055



     bravais-lattice index     =           14
     lattice parameter (alat)  =      25.3856  a.u.
     unit-cell volume          =   15851.6772 (a.u.)^3
     number of atoms/cell      =            5
     number of atomic types    =            3
     number of electrons       =        26.00
     number of Kohn-Sham states=           17
     kinetic-energy cutoff     =      25.0000  Ry
     charge density cutoff     =     225.0000  Ry
     scf convergence threshold =      1.0E-06
     mixing beta               =       0.4000
     number of iterations used =            8  plain     mixing
     Exchange-correlation= SLA  PW   PBE  PBE
                           (   1   4   3   4   0   0   0)

     celldm(1)=  25.385636  celldm(2)=   0.934120  celldm(3)=   1.037310
     celldm(4)=   0.000000  celldm(5)=   0.000000  celldm(6)=   0.000000

     crystal axes: (cart. coord. in units of alat)
               a(1) = (   1.000000   0.000000   0.000000 )  
               a(2) = (   0.000000   0.934120   0.000000 )  
               a(3) = (   0.000000   0.000000   1.037310 )  

     reciprocal axes: (cart. coord. in units 2 pi/alat)
               b(1) = (  1.000000  0.000000  0.000000 )  
               b(2) = (  0.000000  1.070526  0.000000 )  
               b(3) = (  0.000000  0.000000  0.964032 )  


     PseudoPot. # 1 for H  read from file:
     ./H.pbe-rrkjus.UPF
     MD5 check sum: d9bcf6f4e88d09736c6b7f7b23490d32
     Pseudo is Ultrasoft, Zval =  1.0
     Generated by new atomic code, or converted to UPF format
     Using radial grid of 1061 points,  2 beta functions with: 
                l(1) =   0
                l(2) =   0
     Q(r) pseudized with 0 coefficients 


     PseudoPot. # 2 for O  read from file:
     ./O.pbe-rrkjus.UPF
     MD5 check sum: a4b6f5047f549466a921003d899c5518
     Pseudo is Ultrasoft, Zval =  6.0
     Generated by new atomic code, or converted to UPF format
     Using radial grid of 1269 points,  4 beta functions with: 
                l(1) =   0
                l(2) =   0
                l(3) =   1
                l(4) =   1
     Q(r) pseudized with 0 coefficients 


     PseudoPot. # 3 for Ti read from file:
     ./Ti.pbe-sp-van_ak.UPF
     MD5 check sum: 2e7572f3128e7cf134dafc4105d62c0f
     Pseudo is Ultrasoft, Zval = 12.0
     Generated by new atomic code, or converted to UPF format
     Using radial grid of  851 points,  6 beta functions with: 
                l(1) =   0
                l(2) =   0
                l(3) =   1
                l(4) =   1
                l(5) =   2
                l(6) =   2
     Q(r) pseudized with  8 coefficients,  rinner =    1.000   1.000   1.000
                                                       1.000   1.000

     atomic species   valence    mass     pseudopotential
        H              1.00     1.00794     H ( 1.00)
        O              6.00    15.99940     O ( 1.00)
        Ti            12.00    47.86700     Ti( 1.00)

     Starting magnetic structure 
     atomic species   magnetization
        H            0.000
        O            0.000
        Ti           0.200

     No symmetry found



   Cartesian axes

     site n.     atom                  positions (alat units)
         1           H   tau(   1) = (   0.2419143   0.3150407   0.3834953  )
         2           H   tau(   2) = (   0.2705115   0.3149127   0.4330511  )
         3           O   tau(   3) = (   0.3614166   0.4179788   0.2585824  )
         4           O   tau(   4) = (   0.3592850   0.2172332   0.2501877  )
         5           Ti  tau(   5) = (   0.3874704   0.3145768   0.3200417  )

     number of k points=    36  Gaussian smearing, width (Ry)=  0.0100
                       cart. coord. in units 2pi/alat
        k(    1) = (   0.0000000   0.0000000   0.0000000), wk =   0.0156250
        k(    2) = (   0.0000000   0.0000000   0.2410081), wk =   0.0312500
        k(    3) = (   0.0000000   0.0000000  -0.4820161), wk =   0.0156250
        k(    4) = (   0.0000000   0.2676316   0.0000000), wk =   0.0312500
        k(    5) = (   0.0000000   0.2676316   0.2410081), wk =   0.0312500
        k(    6) = (   0.0000000   0.2676316  -0.4820161), wk =   0.0312500
        k(    7) = (   0.0000000  -0.5352632   0.0000000), wk =   0.0156250
        k(    8) = (   0.0000000  -0.5352632   0.2410081), wk =   0.0312500
        k(    9) = (   0.0000000  -0.5352632  -0.4820161), wk =   0.0156250
        k(   10) = (   0.2500000   0.0000000   0.0000000), wk =   0.0312500
        k(   11) = (   0.2500000   0.0000000   0.2410081), wk =   0.0312500
        k(   12) = (   0.2500000   0.0000000  -0.4820161), wk =   0.0312500
        k(   13) = (   0.2500000   0.2676316   0.0000000), wk =   0.0312500
        k(   14) = (   0.2500000   0.2676316   0.2410081), wk =   0.0312500
        k(   15) = (   0.2500000   0.2676316  -0.4820161), wk =   0.0312500
        k(   16) = (   0.2500000  -0.5352632   0.0000000), wk =   0.0312500
        k(   17) = (   0.2500000  -0.5352632   0.2410081), wk =   0.0312500
        k(   18) = (   0.2500000  -0.5352632  -0.4820161), wk =   0.0312500
        k(   19) = (  -0.5000000   0.0000000   0.0000000), wk =   0.0156250
        k(   20) = (  -0.5000000   0.0000000   0.2410081), wk =   0.0312500
        k(   21) = (  -0.5000000   0.0000000  -0.4820161), wk =   0.0156250
        k(   22) = (  -0.5000000   0.2676316   0.0000000), wk =   0.0312500
        k(   23) = (  -0.5000000   0.2676316   0.2410081), wk =   0.0312500
        k(   24) = (  -0.5000000   0.2676316  -0.4820161), wk =   0.0312500
        k(   25) = (  -0.5000000  -0.5352632   0.0000000), wk =   0.0156250
        k(   26) = (  -0.5000000  -0.5352632   0.2410081), wk =   0.0312500
        k(   27) = (  -0.5000000  -0.5352632  -0.4820161), wk =   0.0156250
        k(   28) = (   0.0000000  -0.2676316   0.2410081), wk =   0.0312500
        k(   29) = (  -0.2500000   0.0000000   0.2410081), wk =   0.0312500
        k(   30) = (  -0.2500000   0.2676316   0.0000000), wk =   0.0312500
        k(   31) = (  -0.2500000  -0.2676316   0.2410081), wk =   0.0312500
        k(   32) = (  -0.2500000   0.2676316  -0.2410081), wk =   0.0312500
        k(   33) = (   0.2500000  -0.2676316  -0.2410081), wk =   0.0312500
        k(   34) = (  -0.2500000   0.2676316   0.4820161), wk =   0.0312500
        k(   35) = (  -0.2500000   0.5352632   0.2410081), wk =   0.0312500
        k(   36) = (   0.5000000  -0.2676316   0.2410081), wk =   0.0312500

     Dense  grid:   903397 G-vectors     FFT dimensions: ( 125, 120, 125)

     Smooth grid:   267757 G-vectors     FFT dimensions: (  81,  75,  90)

     Estimated max dynamical RAM per process >       1.02 GB

     Estimated total dynamical RAM >       4.08 GB
     Generating pointlists ...
     new r_m :   0.0236 (alat units)  0.5991 (a.u.) for type    1
     new r_m :   0.0508 (alat units)  1.2888 (a.u.) for type    2
     new r_m :   0.0508 (alat units)  1.2888 (a.u.) for type    3

     Initial potential from superposition of free atoms

     starting charge   24.80754, renormalised to   26.00000

     negative rho (up, down):  3.958E-02 2.619E-02
     Starting wfcs are   20 randomized atomic wfcs

     total cpu time spent up to now is       38.4 secs

     Self-consistent Calculation

     iteration #  1     ecut=    25.00 Ry     beta= 0.40
     Davidson diagonalization with overlap
     ethr =  1.00E-02,  avg # of iterations =  4.0

     negative rho (up, down):  3.622E-02 2.792E-02

     total cpu time spent up to now is      123.7 secs

     total energy              =    -182.72063470 Ry
     estimated scf accuracy    <       0.99828738 Ry

     total magnetization       =     0.00 Bohr mag/cell
     absolute magnetization    =     0.72 Bohr mag/cell

     iteration #  2     ecut=    25.00 Ry     beta= 0.40
     Davidson diagonalization with overlap
     ethr =  3.84E-03,  avg # of iterations =  2.0

     negative rho (up, down):  3.480E-02 2.954E-02

     total cpu time spent up to now is      187.8 secs

     total energy              =    -182.67411079 Ry
     estimated scf accuracy    <       0.30611280 Ry

     total magnetization       =    -0.00 Bohr mag/cell
     absolute magnetization    =     0.88 Bohr mag/cell

     iteration #  3     ecut=    25.00 Ry     beta= 0.40
     Davidson diagonalization with overlap
     ethr =  1.18E-03,  avg # of iterations =  3.0

     negative rho (up, down):  3.634E-02 3.249E-02

     total cpu time spent up to now is      263.0 secs

     total energy              =    -182.70212699 Ry
     estimated scf accuracy    <       0.27625388 Ry

     total magnetization       =    -0.00 Bohr mag/cell
     absolute magnetization    =     0.35 Bohr mag/cell

     iteration #  4     ecut=    25.00 Ry     beta= 0.40
     Davidson diagonalization with overlap
     ethr =  1.06E-03,  avg # of iterations =  2.5

     negative rho (up, down):  3.844E-02 3.589E-02

     total cpu time spent up to now is      325.4 secs

     total energy              =    -182.73340710 Ry
     estimated scf accuracy    <       0.00777809 Ry

     total magnetization       =     0.00 Bohr mag/cell
     absolute magnetization    =     0.48 Bohr mag/cell

     iteration #  5     ecut=    25.00 Ry     beta= 0.40
     Davidson diagonalization with overlap
     ethr =  2.99E-05,  avg # of iterations =  5.0

     negative rho (up, down):  3.919E-02 3.771E-02

     total cpu time spent up to now is      424.5 secs

     total energy              =    -182.73944043 Ry
     estimated scf accuracy    <       0.01932807 Ry

     total magnetization       =    -0.00 Bohr mag/cell
     absolute magnetization    =     0.31 Bohr mag/cell

     iteration #  6     ecut=    25.00 Ry     beta= 0.40
     Davidson diagonalization with overlap
     ethr =  2.99E-05,  avg # of iterations =  3.0

     negative rho (up, down):  4.107E-02 4.024E-02

     total cpu time spent up to now is      493.0 secs

     total energy              =    -182.74219387 Ry
     estimated scf accuracy    <       0.00105216 Ry

     total magnetization       =    -0.00 Bohr mag/cell
     absolute magnetization    =     0.23 Bohr mag/cell

     iteration #  7     ecut=    25.00 Ry     beta= 0.40
     Davidson diagonalization with overlap
     ethr =  4.05E-06,  avg # of iterations =  3.9

     negative rho (up, down):  4.119E-02 4.073E-02

     total cpu time spent up to now is      572.2 secs

     total energy              =    -182.74257131 Ry
     estimated scf accuracy    <       0.00069480 Ry

     total magnetization       =    -0.00 Bohr mag/cell
     absolute magnetization    =     0.15 Bohr mag/cell

     iteration #  8     ecut=    25.00 Ry     beta= 0.40
     Davidson diagonalization with overlap
     ethr =  2.67E-06,  avg # of iterations =  2.5

     negative rho (up, down):  4.142E-02 4.118E-02

     total cpu time spent up to now is      636.5 secs

     total energy              =    -182.74267413 Ry
     estimated scf accuracy    <       0.00063463 Ry

     total magnetization       =    -0.00 Bohr mag/cell
     absolute magnetization    =     0.12 Bohr mag/cell

     iteration #  9     ecut=    25.00 Ry     beta= 0.40
     Davidson diagonalization with overlap
     ethr =  2.44E-06,  avg # of iterations =  2.0

     negative rho (up, down):  4.091E-02 4.076E-02

     total cpu time spent up to now is      701.8 secs

     total energy              =    -182.74285904 Ry
     estimated scf accuracy    <       0.00006460 Ry

     total magnetization       =     0.00 Bohr mag/cell
     absolute magnetization    =     0.06 Bohr mag/cell

     iteration # 10     ecut=    25.00 Ry     beta= 0.40
     Davidson diagonalization with overlap
     ethr =  2.48E-07,  avg # of iterations =  3.1

     negative rho (up, down):  4.084E-02 4.075E-02

     total cpu time spent up to now is      774.9 secs

     total energy              =    -182.74289684 Ry
     estimated scf accuracy    <       0.00002320 Ry

     total magnetization       =     0.00 Bohr mag/cell
     absolute magnetization    =     0.02 Bohr mag/cell

     iteration # 11     ecut=    25.00 Ry     beta= 0.40
     Davidson diagonalization with overlap
     ethr =  8.92E-08,  avg # of iterations =  2.0

     negative rho (up, down):  4.076E-02 4.070E-02

     total cpu time spent up to now is      843.2 secs

     total energy              =    -182.74290628 Ry
     estimated scf accuracy    <       0.00000220 Ry

     total magnetization       =     0.00 Bohr mag/cell
     absolute magnetization    =     0.01 Bohr mag/cell

     iteration # 12     ecut=    25.00 Ry     beta= 0.40
     Davidson diagonalization with overlap
     ethr =  8.48E-09,  avg # of iterations =  2.5

     negative rho (up, down):  4.073E-02 4.073E-02

     Magnetic moment per site:
     atom:    1    charge:    0.2089    magn:    0.0000    constr:    0.0000
     atom:    2    charge:    0.2156    magn:   -0.0000    constr:    0.0000
     atom:    3    charge:    4.5283    magn:   -0.0003    constr:    0.0000
     atom:    4    charge:    4.5289    magn:   -0.0004    constr:    0.0000
     atom:    5    charge:    7.6683    magn:    0.0002    constr:    0.0000

     total cpu time spent up to now is      914.7 secs

     End of self-consistent calculation

 ------ SPIN UP ------------


          k = 0.0000 0.0000 0.0000 ( 33437 PWs)   bands (ev):

   -60.9707 -37.5666 -37.5300 -37.3954 -20.6703 -20.3311 -12.8736  -7.5120
    -7.2744  -7.1280  -6.8406  -6.5062  -5.4782  -2.9761  -2.9059  -1.9523
    -0.9522

          k = 0.0000 0.0000 0.2410 ( 33452 PWs)   bands (ev):

   -60.9707 -37.5666 -37.5300 -37.3954 -20.6703 -20.3311 -12.8737  -7.5123
    -7.2743  -7.1284  -6.8408  -6.5062  -5.4786  -2.9761  -2.9060  -1.9524
    -0.9522

          k = 0.0000 0.0000-0.4820 ( 33474 PWs)   bands (ev):

   -60.9707 -37.5666 -37.5300 -37.3954 -20.6703 -20.3311 -12.8737  -7.5128
    -7.2745  -7.1282  -6.8409  -6.5061  -5.4790  -2.9760  -2.9061  -1.9524
    -0.9520

          k = 0.0000 0.2676 0.0000 ( 33448 PWs)   bands (ev):

   -60.9707 -37.5666 -37.5300 -37.3954 -20.6703 -20.3311 -12.8737  -7.5121
    -7.2745  -7.1281  -6.8406  -6.5063  -5.4782  -2.9759  -2.9056  -1.9523
    -0.9530

          k = 0.0000 0.2676 0.2410 ( 33461 PWs)   bands (ev):

   -60.9707 -37.5666 -37.5300 -37.3954 -20.6703 -20.3311 -12.8738  -7.5124
    -7.2745  -7.1281  -6.8408  -6.5063  -5.4787  -2.9759  -2.9057  -1.9523
    -0.9531

          k = 0.0000 0.2676-0.4820 ( 33468 PWs)   bands (ev):

   -60.9707 -37.5666 -37.5300 -37.3954 -20.6703 -20.3311 -12.8738  -7.5127
    -7.2744  -7.1282  -6.8409  -6.5060  -5.4790  -2.9758  -2.9058  -1.9524
    -0.9529

          k = 0.0000-0.5353 0.0000 ( 33446 PWs)   bands (ev):

   -60.9707 -37.5666 -37.5300 -37.3954 -20.6703 -20.3311 -12.8738  -7.5125
    -7.2745  -7.1276  -6.8411  -6.5058  -5.4781  -2.9757  -2.9053  -1.9524
    -0.9543

          k = 0.0000-0.5353 0.2410 ( 33434 PWs)   bands (ev):

   -60.9707 -37.5666 -37.5300 -37.3954 -20.6703 -20.3311 -12.8738  -7.5122
    -7.2745  -7.1278  -6.8405  -6.5060  -5.4784  -2.9756  -2.9054  -1.9522
    -0.9541

          k = 0.0000-0.5353-0.4820 ( 33512 PWs)   bands (ev):

   -60.9707 -37.5666 -37.5300 -37.3954 -20.6703 -20.3311 -12.8740  -7.5129
    -7.2749  -7.1283  -6.8407  -6.5065  -5.4793  -2.9756  -2.9055  -1.9525
    -0.9543

          k = 0.2500 0.0000 0.0000 ( 33434 PWs)   bands (ev):

   -60.9707 -37.5666 -37.5300 -37.3954 -20.6703 -20.3311 -12.8736  -7.5120
    -7.2742  -7.1282  -6.8403  -6.5064  -5.4784  -2.9762  -2.9059  -1.9527
    -0.9520

          k = 0.2500 0.0000 0.2410 ( 33437 PWs)   bands (ev):

   -60.9707 -37.5666 -37.5300 -37.3954 -20.6703 -20.3311 -12.8738  -7.5124
    -7.2743  -7.1279  -6.8407  -6.5059  -5.4787  -2.9762  -2.9060  -1.9526
    -0.9519

          k = 0.2500 0.0000-0.4820 ( 33428 PWs)   bands (ev):

   -60.9707 -37.5665 -37.5300 -37.3954 -20.6703 -20.3311 -12.8737  -7.5123
    -7.2741  -7.1282  -6.8402  -6.5060  -5.4788  -2.9761  -2.9060  -1.9526
    -0.9519

          k = 0.2500 0.2676 0.0000 ( 33452 PWs)   bands (ev):

   -60.9707 -37.5666 -37.5300 -37.3954 -20.6703 -20.3311 -12.8737  -7.5121
    -7.2746  -7.1281  -6.8404  -6.5062  -5.4786  -2.9760  -2.9057  -1.9527
    -0.9532

          k = 0.2500 0.2676 0.2410 ( 33470 PWs)   bands (ev):

   -60.9707 -37.5666 -37.5300 -37.3954 -20.6703 -20.3311 -12.8738  -7.5124
    -7.2745  -7.1282  -6.8405  -6.5063  -5.4792  -2.9760  -2.9058  -1.9526
    -0.9531

          k = 0.2500 0.2676-0.4820 ( 33476 PWs)   bands (ev):

   -60.9707 -37.5666 -37.5300 -37.3954 -20.6703 -20.3311 -12.8739  -7.5127
    -7.2746  -7.1285  -6.8407  -6.5061  -5.4790  -2.9759  -2.9058  -1.9526
    -0.9531

          k = 0.2500-0.5353 0.0000 ( 33488 PWs)   bands (ev):

   -60.9707 -37.5666 -37.5300 -37.3954 -20.6703 -20.3311 -12.8738  -7.5121
    -7.2750  -7.1287  -6.8403  -6.5065  -5.4788  -2.9759  -2.9054  -1.9527
    -0.9548

          k = 0.2500-0.5353 0.2410 ( 33480 PWs)   bands (ev):

   -60.9707 -37.5666 -37.5300 -37.3954 -20.6703 -20.3311 -12.8738  -7.5125
    -7.2749  -7.1283  -6.8407  -6.5062  -5.4788  -2.9758  -2.9055  -1.9527
    -0.9543

          k = 0.2500-0.5353-0.4820 ( 33472 PWs)   bands (ev):

   -60.9707 -37.5666 -37.5300 -37.3954 -20.6703 -20.3311 -12.8739  -7.5125
    -7.2745  -7.1284  -6.8406  -6.5061  -5.4792  -2.9757  -2.9056  -1.9526
    -0.9539

          k =-0.5000 0.0000 0.0000 ( 33492 PWs)   bands (ev):

   -60.9707 -37.5666 -37.5300 -37.3954 -20.6703 -20.3311 -12.8738  -7.5122
    -7.2746  -7.1288  -6.8407  -6.5065  -5.4788  -2.9764  -2.9061  -1.9531
    -0.9526

          k =-0.5000 0.0000 0.2410 ( 33450 PWs)   bands (ev):

   -60.9707 -37.5666 -37.5300 -37.3954 -20.6703 -20.3311 -12.8737  -7.5125
    -7.2742  -7.1284  -6.8405  -6.5061  -5.4790  -2.9763  -2.9060  -1.9529
    -0.9519

          k =-0.5000 0.0000-0.4820 ( 33448 PWs)   bands (ev):

   -60.9707 -37.5666 -37.5300 -37.3954 -20.6703 -20.3311 -12.8737  -7.5122
    -7.2743  -7.1285  -6.8399  -6.5066  -5.4790  -2.9762  -2.9061  -1.9529
    -0.9520

          k =-0.5000 0.2676 0.0000 ( 33460 PWs)   bands (ev):

   -60.9707 -37.5666 -37.5300 -37.3954 -20.6703 -20.3311 -12.8738  -7.5120
    -7.2746  -7.1286  -6.8408  -6.5062  -5.4785  -2.9762  -2.9057  -1.9530
    -0.9533

          k =-0.5000 0.2676 0.2410 ( 33492 PWs)   bands (ev):

   -60.9707 -37.5666 -37.5300 -37.3954 -20.6703 -20.3311 -12.8739  -7.5126
    -7.2746  -7.1287  -6.8409  -6.5063  -5.4790  -2.9761  -2.9059  -1.9531
    -0.9533

          k =-0.5000 0.2676-0.4820 ( 33444 PWs)   bands (ev):

   -60.9707 -37.5666 -37.5300 -37.3954 -20.6703 -20.3311 -12.8737  -7.5122
    -7.2745  -7.1284  -6.8402  -6.5061  -5.4787  -2.9760  -2.9058  -1.9528
    -0.9528

          k =-0.5000-0.5353 0.0000 ( 33516 PWs)   bands (ev):

   -60.9708 -37.5666 -37.5300 -37.3954 -20.6703 -20.3311 -12.8739  -7.5126
    -7.2748  -7.1289  -6.8408  -6.5065  -5.4794  -2.9760  -2.9056  -1.9532
    -0.9547

          k =-0.5000-0.5353 0.2410 ( 33492 PWs)   bands (ev):

   -60.9707 -37.5666 -37.5300 -37.3954 -20.6703 -20.3311 -12.8739  -7.5126
    -7.2749  -7.1286  -6.8408  -6.5062  -5.4789  -2.9759  -2.9056  -1.9530
    -0.9543

          k =-0.5000-0.5353-0.4820 ( 33432 PWs)   bands (ev):

   -60.9707 -37.5666 -37.5300 -37.3954 -20.6703 -20.3311 -12.8738  -7.5118
    -7.2746  -7.1281  -6.8397  -6.5063  -5.4786  -2.9758  -2.9056  -1.9526
    -0.9540

          k = 0.0000-0.2676 0.2410 ( 33461 PWs)   bands (ev):

   -60.9707 -37.5666 -37.5300 -37.3954 -20.6703 -20.3311 -12.8738  -7.5125
    -7.2745  -7.1281  -6.8408  -6.5062  -5.4784  -2.9759  -2.9057  -1.9523
    -0.9530

          k =-0.2500 0.0000 0.2410 ( 33437 PWs)   bands (ev):

   -60.9707 -37.5666 -37.5300 -37.3954 -20.6703 -20.3311 -12.8737  -7.5124
    -7.2742  -7.1284  -6.8404  -6.5059  -5.4784  -2.9762  -2.9059  -1.9527
    -0.9519

          k =-0.2500 0.2676 0.0000 ( 33452 PWs)   bands (ev):

   -60.9707 -37.5666 -37.5300 -37.3954 -20.6703 -20.3311 -12.8737  -7.5122
    -7.2746  -7.1282  -6.8403  -6.5062  -5.4785  -2.9760  -2.9056  -1.9527
    -0.9532

          k =-0.2500-0.2676 0.2410 ( 33470 PWs)   bands (ev):

   -60.9707 -37.5666 -37.5300 -37.3954 -20.6703 -20.3311 -12.8738  -7.5125
    -7.2746  -7.1284  -6.8405  -6.5062  -5.4787  -2.9760  -2.9058  -1.9527
    -0.9532

          k =-0.2500 0.2676-0.2410 ( 33470 PWs)   bands (ev):

   -60.9707 -37.5666 -37.5300 -37.3954 -20.6703 -20.3311 -12.8738  -7.5125
    -7.2746  -7.1282  -6.8406  -6.5062  -5.4789  -2.9760  -2.9058  -1.9526
    -0.9530

          k = 0.2500-0.2676-0.2410 ( 33470 PWs)   bands (ev):

   -60.9707 -37.5666 -37.5300 -37.3954 -20.6703 -20.3311 -12.8738  -7.5123
    -7.2745  -7.1284  -6.8405  -6.5063  -5.4789  -2.9760  -2.9058  -1.9527
    -0.9532

          k =-0.2500 0.2676 0.4820 ( 33476 PWs)   bands (ev):

   -60.9707 -37.5666 -37.5300 -37.3954 -20.6703 -20.3311 -12.8739  -7.5126
    -7.2745  -7.1284  -6.8407  -6.5061  -5.4791  -2.9759  -2.9058  -1.9526
    -0.9530

          k =-0.2500 0.5353 0.2410 ( 33480 PWs)   bands (ev):

   -60.9707 -37.5666 -37.5300 -37.3954 -20.6703 -20.3311 -12.8739  -7.5123
    -7.2748  -7.1286  -6.8408  -6.5063  -5.4785  -2.9758  -2.9055  -1.9527
    -0.9543

          k = 0.5000-0.2676 0.2410 ( 33492 PWs)   bands (ev):

   -60.9707 -37.5666 -37.5300 -37.3954 -20.6703 -20.3311 -12.8739  -7.5126
    -7.2746  -7.1287  -6.8408  -6.5062  -5.4790  -2.9761  -2.9058  -1.9531
    -0.9533

 ------ SPIN DOWN ----------


          k = 0.0000 0.0000 0.0000 ( 33437 PWs)   bands (ev):

   -60.9706 -37.5665 -37.5305 -37.3948 -20.6715 -20.3324 -12.8736  -7.5121
    -7.2749  -7.1290  -6.8418  -6.5067  -5.4786  -2.9750  -2.9052  -1.9521
    -0.9523

          k = 0.0000 0.0000 0.2410 ( 33452 PWs)   bands (ev):

   -60.9707 -37.5665 -37.5305 -37.3948 -20.6716 -20.3324 -12.8737  -7.5124
    -7.2748  -7.1294  -6.8420  -6.5067  -5.4791  -2.9749  -2.9053  -1.9522
    -0.9523

          k = 0.0000 0.0000-0.4820 ( 33474 PWs)   bands (ev):

   -60.9707 -37.5665 -37.5305 -37.3948 -20.6716 -20.3324 -12.8737  -7.5129
    -7.2750  -7.1292  -6.8421  -6.5065  -5.4794  -2.9749  -2.9053  -1.9522
    -0.9522

          k = 0.0000 0.2676 0.0000 ( 33448 PWs)   bands (ev):

   -60.9707 -37.5665 -37.5305 -37.3948 -20.6715 -20.3324 -12.8737  -7.5123
    -7.2750  -7.1291  -6.8418  -6.5068  -5.4786  -2.9748  -2.9049  -1.9521
    -0.9533

          k = 0.0000 0.2676 0.2410 ( 33461 PWs)   bands (ev):

   -60.9707 -37.5665 -37.5305 -37.3948 -20.6715 -20.3324 -12.8738  -7.5125
    -7.2750  -7.1292  -6.8419  -6.5068  -5.4791  -2.9748  -2.9050  -1.9521
    -0.9533

          k = 0.0000 0.2676-0.4820 ( 33468 PWs)   bands (ev):

   -60.9707 -37.5665 -37.5305 -37.3948 -20.6716 -20.3324 -12.8737  -7.5129
    -7.2749  -7.1292  -6.8420  -6.5064  -5.4794  -2.9747  -2.9050  -1.9522
    -0.9531

          k = 0.0000-0.5353 0.0000 ( 33446 PWs)   bands (ev):

   -60.9707 -37.5665 -37.5305 -37.3948 -20.6715 -20.3324 -12.8737  -7.5126
    -7.2749  -7.1286  -6.8422  -6.5063  -5.4786  -2.9746  -2.9046  -1.9522
    -0.9545

          k = 0.0000-0.5353 0.2410 ( 33434 PWs)   bands (ev):

   -60.9706 -37.5665 -37.5305 -37.3948 -20.6715 -20.3324 -12.8737  -7.5124
    -7.2749  -7.1288  -6.8416  -6.5065  -5.4789  -2.9745  -2.9046  -1.9520
    -0.9543

          k = 0.0000-0.5353-0.4820 ( 33512 PWs)   bands (ev):

   -60.9707 -37.5665 -37.5305 -37.3948 -20.6716 -20.3324 -12.8739  -7.5131
    -7.2754  -7.1294  -6.8419  -6.5069  -5.4798  -2.9745  -2.9048  -1.9523
    -0.9545

          k = 0.2500 0.0000 0.0000 ( 33434 PWs)   bands (ev):

   -60.9706 -37.5665 -37.5305 -37.3948 -20.6715 -20.3324 -12.8736  -7.5122
    -7.2747  -7.1292  -6.8414  -6.5069  -5.4788  -2.9751  -2.9052  -1.9525
    -0.9522

          k = 0.2500 0.0000 0.2410 ( 33437 PWs)   bands (ev):

   -60.9706 -37.5665 -37.5305 -37.3948 -20.6715 -20.3324 -12.8737  -7.5125
    -7.2748  -7.1290  -6.8418  -6.5064  -5.4792  -2.9751  -2.9053  -1.9524
    -0.9522

          k = 0.2500 0.0000-0.4820 ( 33428 PWs)   bands (ev):

   -60.9706 -37.5665 -37.5305 -37.3948 -20.6715 -20.3324 -12.8737  -7.5125
    -7.2746  -7.1292  -6.8413  -6.5065  -5.4792  -2.9750  -2.9053  -1.9524
    -0.9521

          k = 0.2500 0.2676 0.0000 ( 33452 PWs)   bands (ev):

   -60.9707 -37.5665 -37.5305 -37.3948 -20.6715 -20.3324 -12.8737  -7.5122
    -7.2751  -7.1291  -6.8416  -6.5067  -5.4790  -2.9749  -2.9049  -1.9525
    -0.9535

          k = 0.2500 0.2676 0.2410 ( 33470 PWs)   bands (ev):

   -60.9707 -37.5665 -37.5305 -37.3948 -20.6715 -20.3324 -12.8738  -7.5126
    -7.2750  -7.1293  -6.8417  -6.5068  -5.4796  -2.9749  -2.9050  -1.9524
    -0.9533

          k = 0.2500 0.2676-0.4820 ( 33476 PWs)   bands (ev):

   -60.9707 -37.5665 -37.5305 -37.3948 -20.6716 -20.3324 -12.8738  -7.5129
    -7.2750  -7.1295  -6.8418  -6.5066  -5.4794  -2.9748  -2.9051  -1.9524
    -0.9533

          k = 0.2500-0.5353 0.0000 ( 33488 PWs)   bands (ev):

   -60.9707 -37.5665 -37.5305 -37.3948 -20.6715 -20.3324 -12.8738  -7.5123
    -7.2755  -7.1297  -6.8414  -6.5070  -5.4792  -2.9747  -2.9047  -1.9525
    -0.9549

          k = 0.2500-0.5353 0.2410 ( 33480 PWs)   bands (ev):

   -60.9707 -37.5665 -37.5305 -37.3948 -20.6716 -20.3324 -12.8738  -7.5127
    -7.2754  -7.1293  -6.8419  -6.5067  -5.4793  -2.9747  -2.9048  -1.9525
    -0.9544

          k = 0.2500-0.5353-0.4820 ( 33472 PWs)   bands (ev):

   -60.9707 -37.5665 -37.5305 -37.3948 -20.6716 -20.3324 -12.8738  -7.5127
    -7.2750  -7.1295  -6.8417  -6.5066  -5.4796  -2.9746  -2.9048  -1.9524
    -0.9541

          k =-0.5000 0.0000 0.0000 ( 33492 PWs)   bands (ev):

   -60.9707 -37.5665 -37.5305 -37.3948 -20.6716 -20.3324 -12.8737  -7.5123
    -7.2750  -7.1299  -6.8418  -6.5070  -5.4792  -2.9753  -2.9053  -1.9529
    -0.9528

          k =-0.5000 0.0000 0.2410 ( 33450 PWs)   bands (ev):

   -60.9707 -37.5665 -37.5305 -37.3948 -20.6716 -20.3324 -12.8737  -7.5126
    -7.2747  -7.1295  -6.8416  -6.5066  -5.4794  -2.9752  -2.9053  -1.9527
    -0.9522

          k =-0.5000 0.0000-0.4820 ( 33448 PWs)   bands (ev):

   -60.9707 -37.5665 -37.5305 -37.3948 -20.6715 -20.3324 -12.8737  -7.5123
    -7.2748  -7.1295  -6.8411  -6.5070  -5.4794  -2.9751  -2.9053  -1.9527
    -0.9522

          k =-0.5000 0.2676 0.0000 ( 33460 PWs)   bands (ev):

   -60.9707 -37.5665 -37.5305 -37.3948 -20.6716 -20.3324 -12.8737  -7.5122
    -7.2751  -7.1297  -6.8419  -6.5066  -5.4789  -2.9750  -2.9050  -1.9528
    -0.9535

          k =-0.5000 0.2676 0.2410 ( 33492 PWs)   bands (ev):

   -60.9707 -37.5665 -37.5305 -37.3948 -20.6716 -20.3324 -12.8738  -7.5127
    -7.2751  -7.1297  -6.8420  -6.5068  -5.4794  -2.9750  -2.9051  -1.9529
    -0.9535

          k =-0.5000 0.2676-0.4820 ( 33444 PWs)   bands (ev):

   -60.9707 -37.5665 -37.5305 -37.3948 -20.6715 -20.3324 -12.8737  -7.5124
    -7.2750  -7.1294  -6.8414  -6.5066  -5.4791  -2.9749  -2.9051  -1.9526
    -0.9530

          k =-0.5000-0.5353 0.0000 ( 33516 PWs)   bands (ev):

   -60.9707 -37.5665 -37.5305 -37.3948 -20.6716 -20.3324 -12.8738  -7.5128
    -7.2752  -7.1299  -6.8420  -6.5069  -5.4798  -2.9749  -2.9048  -1.9530
    -0.9548

          k =-0.5000-0.5353 0.2410 ( 33492 PWs)   bands (ev):

   -60.9707 -37.5665 -37.5305 -37.3948 -20.6716 -20.3324 -12.8738  -7.5127
    -7.2754  -7.1296  -6.8419  -6.5067  -5.4793  -2.9748  -2.9048  -1.9529
    -0.9544

          k =-0.5000-0.5353-0.4820 ( 33432 PWs)   bands (ev):

   -60.9707 -37.5665 -37.5305 -37.3948 -20.6715 -20.3324 -12.8737  -7.5119
    -7.2751  -7.1292  -6.8409  -6.5068  -5.4790  -2.9747  -2.9048  -1.9524
    -0.9541

          k = 0.0000-0.2676 0.2410 ( 33461 PWs)   bands (ev):

   -60.9707 -37.5665 -37.5305 -37.3948 -20.6715 -20.3324 -12.8738  -7.5127
    -7.2750  -7.1291  -6.8420  -6.5067  -5.4789  -2.9748  -2.9050  -1.9521
    -0.9532

          k =-0.2500 0.0000 0.2410 ( 33437 PWs)   bands (ev):

   -60.9706 -37.5665 -37.5305 -37.3948 -20.6715 -20.3324 -12.8737  -7.5126
    -7.2747  -7.1294  -6.8416  -6.5064  -5.4788  -2.9750  -2.9052  -1.9525
    -0.9521

          k =-0.2500 0.2676 0.0000 ( 33452 PWs)   bands (ev):

   -60.9707 -37.5665 -37.5305 -37.3948 -20.6715 -20.3324 -12.8737  -7.5123
    -7.2751  -7.1292  -6.8415  -6.5067  -5.4789  -2.9749  -2.9049  -1.9525
    -0.9534

          k =-0.2500-0.2676 0.2410 ( 33470 PWs)   bands (ev):

   -60.9707 -37.5665 -37.5305 -37.3948 -20.6716 -20.3324 -12.8737  -7.5126
    -7.2751  -7.1294  -6.8417  -6.5067  -5.4791  -2.9749  -2.9050  -1.9525
    -0.9534

          k =-0.2500 0.2676-0.2410 ( 33470 PWs)   bands (ev):

   -60.9707 -37.5665 -37.5305 -37.3948 -20.6715 -20.3324 -12.8738  -7.5127
    -7.2751  -7.1292  -6.8417  -6.5067  -5.4794  -2.9749  -2.9050  -1.9524
    -0.9532

          k = 0.2500-0.2676-0.2410 ( 33470 PWs)   bands (ev):

   -60.9707 -37.5665 -37.5305 -37.3948 -20.6716 -20.3324 -12.8737  -7.5125
    -7.2750  -7.1295  -6.8417  -6.5068  -5.4794  -2.9749  -2.9050  -1.9525
    -0.9534

          k =-0.2500 0.2676 0.4820 ( 33476 PWs)   bands (ev):

   -60.9707 -37.5665 -37.5305 -37.3948 -20.6716 -20.3324 -12.8738  -7.5128
    -7.2750  -7.1294  -6.8419  -6.5066  -5.4795  -2.9748  -2.9051  -1.9525
    -0.9532

          k =-0.2500 0.5353 0.2410 ( 33480 PWs)   bands (ev):

   -60.9707 -37.5665 -37.5305 -37.3948 -20.6716 -20.3324 -12.8738  -7.5125
    -7.2753  -7.1296  -6.8419  -6.5068  -5.4789  -2.9747  -2.9048  -1.9525
    -0.9545

          k = 0.5000-0.2676 0.2410 ( 33492 PWs)   bands (ev):

   -60.9707 -37.5665 -37.5305 -37.3948 -20.6716 -20.3324 -12.8738  -7.5128
    -7.2751  -7.1297  -6.8420  -6.5067  -5.4794  -2.9750  -2.9051  -1.9529
    -0.9535

     the Fermi energy is    -4.4650 ev

!    total energy              =    -182.74290787 Ry
     estimated scf accuracy    <       0.00000040 Ry
     smearing contrib. (-TS)   =      -0.00000000 Ry
     internal energy E=F+TS    =    -182.74290787 Ry

     The total energy is F=E-TS. E is the sum of the following terms:
     one-electron contribution =    -411.61747178 Ry
     hartree contribution      =     205.45334519 Ry
     xc contribution           =     -29.79172877 Ry
     ewald contribution        =      53.21294748 Ry

     total magnetization       =     0.00 Bohr mag/cell
     absolute magnetization    =     0.00 Bohr mag/cell

     convergence has been achieved in  12 iterations

     Writing output data file ./pwscf.save/

     init_run     :     34.52s CPU     37.84s WALL (       1 calls)
     electrons    :    823.86s CPU    876.46s WALL (       1 calls)

     Called by init_run:
     wfcinit      :     22.69s CPU     24.56s WALL (       1 calls)
     potinit      :      6.33s CPU      6.86s WALL (       1 calls)
     hinit0       :      3.20s CPU      3.48s WALL (       1 calls)

     Called by electrons:
     c_bands      :    635.31s CPU    665.75s WALL (      12 calls)
     sum_band     :    151.56s CPU    166.07s WALL (      12 calls)
     v_of_rho     :     13.77s CPU     15.12s WALL (      13 calls)
     newd         :     22.30s CPU     29.06s WALL (      13 calls)
     mix_rho      :      2.31s CPU      2.46s WALL (      12 calls)

     Called by c_bands:
     init_us_2    :      9.01s CPU      9.32s WALL (    1800 calls)
     cegterg      :    618.48s CPU    648.42s WALL (     864 calls)

     Called by *egterg:
     cdiaghg      :      3.23s CPU      3.32s WALL (    3418 calls)
     h_psi        :    462.54s CPU    489.21s WALL (    3490 calls)
     s_psi        :     43.30s CPU     44.54s WALL (    3490 calls)
     g_psi        :      1.24s CPU      1.28s WALL (    2554 calls)

     Called by h_psi:
     h_psi:calbec :     46.15s CPU     47.69s WALL (    3490 calls)
     vloc_psi     :    370.59s CPU    394.31s WALL (    3490 calls)
     add_vuspsi   :     43.44s CPU     44.74s WALL (    3490 calls)

     General routines
     calbec       :     64.21s CPU     66.53s WALL (    4354 calls)
     fft          :     10.89s CPU     11.86s WALL (     318 calls)
     ffts         :      0.46s CPU      0.52s WALL (      50 calls)
     fftw         :    376.12s CPU    401.39s WALL (   91552 calls)
     interpolate  :      1.20s CPU      1.28s WALL (      26 calls)

     Parallel routines
     fft_scatt_xy :     74.33s CPU     79.15s WALL (   91920 calls)
     fft_scatt_yz :     80.18s CPU     88.30s WALL (   91920 calls)

     PWSCF        :  14m19.36s CPU  15m16.00s WALL


   This run was terminated on:  23:26:58   4Feb2024            

=------------------------------------------------------------------------------=
   JOB DONE.
=------------------------------------------------------------------------------=
